# vtk DataFile Version 3.0
VTK Example
ASCII
DATASET UNSTRUCTURED_GRID
POINTS 365 float 
0.000235043 0.000230498 0.0
0.000469859 0.000230547 0.0
0.000705094 0.000230358 0.0
0.000940176 0.000230216 0.0
0.00117539 0.000230093 0.0
0.00141065 0.000229964 0.0
0.00164597 0.000229876 0.0
0.00188173 0.00022943 0.0
0.00211852 0.000228269 0.0
0.00236373 0.00022054 0.0
0.00262559 0.000198592 0.0
0.00283332 0.000220197 0.0
0.000235548 0.000461905 0.0
0.000470347 0.000462435 0.0
0.000705957 0.000462579 0.0
0.000941429 0.000462271 0.0
0.00117709 0.000461981 0.0
0.00141306 0.000461627 0.0
0.00164969 0.000460948 0.0
0.00188815 0.00045935 0.0
0.00213221 0.000454121 0.0
0.00238277 0.000443661 0.0
0.00264944 0.000418273 0.0
0.00290864 0.000407708 0.0
0.000235644 0.000694825 0.0
0.000471506 0.000694608 0.0
0.000707506 0.000694361 0.0
0.00094401 0.000693849 0.0
0.00118096 0.000692934 0.0
0.00141922 0.000691288 0.0
0.00165983 0.000688345 0.0
0.00190386 0.00068285 0.0
0.00215105 0.000673796 0.0
0.00240243 0.000657432 0.0
0.00264262 0.000641893 0.0
0.00287593 0.000625264 0.0
0.00023661 0.000926079 0.0
0.000473481 0.000925659 0.0
0.000710886 0.000924647 0.0
0.000949185 0.000923121 0.0
0.00118922 0.000920444 0.0
0.0014314 0.00091626 0.0
0.00167601 0.00090988 0.0
0.00192221 0.000901321 0.0
0.0021687 0.000889945 0.0
0.00241165 0.000877891 0.0
0.00265904 0.000859848 0.0
0.00290536 0.000838296 0.0
0.00308894 0.000876692 0.0
0.000238388 0.00115493 0.0
0.000477211 0.00115364 0.0
0.000717082 0.00115145 0.0
0.000958611 0.0011478 0.0
0.00120185 0.00114276 0.0
0.00144665 0.00113597 0.0
0.00169191 0.00112794 0.0
0.00193656 0.00111877 0.0
0.00217893 0.00110978 0.0
0.00242036 0.00109998 0.0
0.0026588 0.00109057 0.0
0.00290277 0.00107275 0.0
0.00313124 0.00105995 0.0
0.000241304 0.0013791 0.0
0.000483232 0.00137682 0.0
0.000726327 0.00137274 0.0
0.000970506 0.00136731 0.0
0.00121546 0.00136051 0.0
0.00146021 0.0013531 0.0
0.00170409 0.00134528 0.0
0.00194608 0.0013379 0.0
0.00218626 0.00133113 0.0
0.00242466 0.00132505 0.0
0.00266411 0.00131727 0.0
0.00290238 0.00131071 0.0
0.00314396 0.00130141 0.0
0.000245062 0.00159705 0.0
0.000490538 0.00159373 0.0
0.00073621 0.00158879 0.0
0.000981819 0.00158262 0.0
0.00122664 0.0015761 0.0
0.00147029 0.00156952 0.0
0.00171221 0.00156352 0.0
0.00195256 0.00155813 0.0
0.00219134 0.0015534 0.0
0.00242912 0.00154913 0.0
0.00266723 0.0015451 0.0
0.00291041 0.00153972 0.0
0.00316015 0.00153606 0.0
0.000248712 0.0018083 0.0
0.000496969 0.0018052 0.0
0.00074429 0.00180073 0.0
0.000990109 0.00179578 0.0
0.00123431 0.00179081 0.0
0.00147664 0.00178632 0.0
0.0017174 0.00178237 0.0
0.00195665 0.001779 0.0
0.00219477 0.00177605 0.0
0.00243212 0.00177338 0.0
0.00267088 0.00177087 0.0
0.00291627 0.00176838 0.0
0.00317509 0.00176547 0.0
0.000251041 0.00201461 0.0
0.000500989 0.00201287 0.0
0.000748914 0.00201048 0.0
0.000994687 0.00200789 0.0
0.00123821 0.00200547 0.0
0.00147991 0.00200338 0.0
0.00171996 0.00200162 0.0
0.00195879 0.00200014 0.0
0.00219651 0.00199887 0.0
0.00243372 0.00199774 0.0
0.0026728 0.0019967 0.0
0.00292011 0.00199568 0.0
0.00318325 0.00199465 0.0
0.000251499 0.00221872 0.0
0.000501652 0.00221899 0.0
0.000749731 0.00221943 0.0
0.000995308 0.00221978 0.0
0.00123875 0.0022202 0.0
0.00148022 0.00222058 0.0
0.00172024 0.002221 0.0
0.00195894 0.00222137 0.0
0.00219668 0.00222175 0.0
0.00243384 0.00222213 0.0
0.00267301 0.00222254 0.0
0.00292064 0.00222299 0.0
0.00318495 0.00222387 0.0
0.000249843 0.00242366 0.0
0.000498991 0.00242587 0.0
0.000746528 0.00242869 0.0
0.000992257 0.00243197 0.0
0.00123587 0.00243498 0.0
0.00147782 0.00243784 0.0
0.00171812 0.00244033 0.0
0.00195724 0.00244258 0.0
0.00219517 0.0024446 0.0
0.00243253 0.0024465 0.0
0.00267146 0.00244836 0.0
0.00291919 0.0024517 0.0
0.00317941 0.00245342 0.0
0.000246691 0.00263273 0.0
0.000493391 0.00263541 0.0
0.000739862 0.00263982 0.0
0.000985385 0.00264473 0.0
0.00122976 0.00265009 0.0
0.00147241 0.00265496 0.0
0.00171371 0.00265954 0.0
0.00195347 0.0026636 0.0
0.00219209 0.00266732 0.0
0.00242972 0.00267079 0.0
0.00267036 0.00267626 0.0
0.00291434 0.00268075 0.0
0.00317244 0.00268866 0.0
0.000242958 0.00284755 0.0
0.000486459 0.00285004 0.0
0.00073063 0.00285391 0.0
0.000975438 0.00285944 0.0
0.00122002 0.0028655 0.0
0.00146405 0.00287214 0.0
0.00170653 0.00287831 0.0
0.00194771 0.00288429 0.0
0.00218719 0.00288976 0.0
0.00242698 0.0028963 0.0
0.0026653 0.00290304 0.0
0.00291648 0.00291913 0.0
0.00316485 0.00293137 0.0
0.000239823 0.00306899 0.0
0.000480026 0.00307029 0.0
0.000721264 0.0030731 0.0
0.000963728 0.00307711 0.0
0.0012076 0.00308277 0.0
0.00145203 0.0030892 0.0
0.00169642 0.00309681 0.0
0.0019392 0.00310421 0.0
0.00218091 0.00311201 0.0
0.00241955 0.0031197 0.0
0.00266522 0.00313288 0.0
0.00290969 0.00315344 0.0
0.00310853 0.00311936 0.0
0.000237682 0.00329564 0.0
0.000475565 0.0032964 0.0
0.000713942 0.00329779 0.0
0.000953399 0.00330021 0.0
0.00119451 0.00330347 0.0
0.00143769 0.00330859 0.0
0.00168227 0.00331509 0.0
0.00192749 0.00332369 0.0
0.0021705 0.00333259 0.0
0.00241428 0.00334202 0.0
0.00265003 0.00335146 0.0
0.0028801 0.00335828 0.0
0.00311919 0.00335823 0.0
0.000236306 0.00352731 0.0
0.000472704 0.00352856 0.0
0.000709382 0.00352936 0.0
0.000946593 0.00353033 0.0
0.00118464 0.00353187 0.0
0.00142417 0.00353417 0.0
0.00166619 0.00353837 0.0
0.0019109 0.00354454 0.0
0.00215829 0.00355412 0.0
0.00240628 0.00356667 0.0
0.0026636 0.00357374 0.0
0.00293658 0.00356814 0.0
0.000235553 0.00376686 0.0
0.000471017 0.00377045 0.0
0.00070667 0.00377168 0.0
0.000942571 0.00377213 0.0
0.00117884 0.00377262 0.0
0.00141556 0.00377346 0.0
0.00165336 0.00377465 0.0
0.00189344 0.0037775 0.0
0.00213943 0.00378441 0.0
0.00239277 0.00379671 0.0
0.00265426 0.00382028 0.0
0.00291317 0.00383345 0.0
0.000235116 0.00402011 0.0
0.000470228 0.00402823 0.0
0.000705339 0.00402996 0.0
0.000940548 0.00403042 0.0
0.00117585 0.00403063 0.0
0.00141137 0.00403087 0.0
0.00164697 0.00403114 0.0
0.00188351 0.00403179 0.0
0.00212174 0.00403365 0.0
0.00237196 0.00404349 0.0
0.00264335 0.00406813 0.0
0.00285045 0.0040279 0.0
0 -4.75776e-07 0.0
0.000234536 -1.45615e-06 0.0
0.000469291 -1.56487e-06 0.0
0.000704091 -1.59411e-06 0.0
0.00093923 -1.7395e-06 0.0
0.00117433 -1.80554e-06 0.0
0.00140949 -1.92314e-06 0.0
0.00164464 -1.9454e-06 0.0
0.0018798 -2.10193e-06 0.0
0.00211461 -2.18902e-06 0.0
0.00234921 -2.0772e-06 0.0
0.00258415 -3.12549e-06 0.0
0.00284533 -7.68042e-06 0.0
0.00302512 0.000165566 0.0
0.00310827 0.000392103 0.0
0.00318787 0.000618647 0.0
0.00326094 0.00084605 0.0
0.00332524 0.0010743 0.0
0.00337837 0.00130341 0.0
0.00341963 0.00153311 0.0
0.00344855 0.00176322 0.0
0.00346372 0.00199361 0.0
0.00346669 0.0022241 0.0
0.00345512 0.00245453 0.0
0.00343121 0.00268475 0.0
0.00339417 0.00291459 0.0
0.00334477 0.00314369 0.0
0.00328458 0.00337218 0.0
0.00321432 0.00359961 0.0
0.0031365 0.00382624 0.0
0.00305542 0.00405015 0.0
0.0029404 0.00430359 0.0
0.00258936 0.00430448 0.0
0.00234866 0.00430282 0.0
0.00211503 0.00430305 0.0
0.00187992 0.00430298 0.0
0.00164485 0.00430278 0.0
0.00140956 0.00430278 0.0
0.00117447 0.00430266 0.0
0.000939373 0.00430258 0.0
0.000704331 0.00430243 0.0
0.000469358 0.00430241 0.0
0.000234582 0.0043022 0.0
0 0.00430321 0.0
0 0.00399016 0.0
0 0.00375714 0.0
0 0.00352521 0.0
0 0.00329534 0.0
0 0.00306877 0.0
0 0.00284731 0.0
0 0.00263194 0.0
0 0.00242315 0.0
0 0.0022186 0.0
0 0.00201529 0.0
0 0.00180938 0.0
0 0.00159787 0.0
0 0.0013796 0.0
0 0.00115503 0.0
0 0.000926113 0.0
0 0.000694296 0.0
0 0.000462338 0.0
0 0.000228297 0.0
0.00290895 0.000118644 0.0
0.00282598 0.000105562 0.0
0.00294793 5.83537e-05 0.0
0.00293162 0.000195844 0.0
0.00317803 0.000782665 0.0
0.00311773 0.000755716 0.0
0.00322455 0.000732188 0.0
0.00318242 0.000868196 0.0
0.00319919 0.0034366 0.0
0.00320479 0.00335528 0.0
0.00324943 0.003486 0.0
0.00313925 0.00346692 0.0
0.00294928 0.00412829 0.0
0.0029587 0.0040345 0.0
0.00300856 0.0041882 0.0
0.00287253 0.00415812 0.0
0.00311074 0.00324382 0.0
0.00300522 0.00335982 0.0
0.003015 0.00325514 0.0
0.00270741 -9.34831e-07 0.0
0.00272431 9.98913e-05 0.0
0.00336961 0.00302924 0.0
0.00322871 0.00313409 0.0
0.00325661 0.00303369 0.0
0.00302483 0.000624837 0.0
0.00302097 0.000736455 0.0
0.00314814 0.000505206 0.0
0.00303024 0.000510825 0.0
0.00276045 0.00430785 0.0
0.00276098 0.00417953 0.0
0.00309597 0.00393879 0.0
0.00298924 0.00393781 0.0
0.00331482 0.00325801 0.0
0.00321792 0.00325015 0.0
0.00303018 0.00346468 0.0
0.00306733 0.000278416 0.0
0.00297286 0.000291811 0.0
0.00329323 0.000960077 0.0
0.003205 0.000960466 0.0
0 0 0
0.004 0 0
0.0002353 0 0
0.0004706 0 0
0.0007059 0 0
0.0009412 0 0
0.001176 0 0
0.001412 0 0
0.001647 0 0
0.001882 0 0
0.002118 0 0
0.002353 0 0
0.002588 0 0
0.002824 0 0
0.003059 0 0
0.003294 0 0
0.003529 0 0
0.003765 0 0
0 0.0043013 0
0.004 0.0043013 0
0.0002353 0.0043013 0
0.0004706 0.0043013 0
0.0007059 0.0043013 0
0.0009412 0.0043013 0
0.001176 0.0043013 0
0.001412 0.0043013 0
0.001647 0.0043013 0
0.001882 0.0043013 0
0.002118 0.0043013 0
0.002353 0.0043013 0
0.002588 0.0043013 0
0.002824 0.0043013 0
0.003059 0.0043013 0
0.003294 0.0043013 0
0.003529 0.0043013 0
0.003765 0.0043013 0
CELLS 325 1557
4 0 1 13 12 
4 1 2 14 13 
4 2 3 15 14 
4 3 4 16 15 
4 4 5 17 16 
4 5 6 18 17 
4 6 7 19 18 
4 7 8 20 19 
4 8 9 21 20 
4 9 10 22 21 
4 10 11 23 22 
4 12 13 25 24 
4 13 14 26 25 
4 14 15 27 26 
4 15 16 28 27 
4 16 17 29 28 
4 17 18 30 29 
4 18 19 31 30 
4 19 20 32 31 
4 20 21 33 32 
4 21 22 34 33 
4 22 23 35 34 
4 24 25 37 36 
4 25 26 38 37 
4 26 27 39 38 
4 27 28 40 39 
4 28 29 41 40 
4 29 30 42 41 
4 30 31 43 42 
4 31 32 44 43 
4 32 33 45 44 
4 33 34 46 45 
4 34 35 47 46 
4 36 37 50 49 
4 37 38 51 50 
4 38 39 52 51 
4 39 40 53 52 
4 40 41 54 53 
4 41 42 55 54 
4 42 43 56 55 
4 43 44 57 56 
4 44 45 58 57 
4 45 46 59 58 
4 46 47 60 59 
4 47 48 61 60 
4 49 50 63 62 
4 50 51 64 63 
4 51 52 65 64 
4 52 53 66 65 
4 53 54 67 66 
4 54 55 68 67 
4 55 56 69 68 
4 56 57 70 69 
4 57 58 71 70 
4 58 59 72 71 
4 59 60 73 72 
4 60 61 74 73 
4 62 63 76 75 
4 63 64 77 76 
4 64 65 78 77 
4 65 66 79 78 
4 66 67 80 79 
4 67 68 81 80 
4 68 69 82 81 
4 69 70 83 82 
4 70 71 84 83 
4 71 72 85 84 
4 72 73 86 85 
4 73 74 87 86 
4 75 76 89 88 
4 76 77 90 89 
4 77 78 91 90 
4 78 79 92 91 
4 79 80 93 92 
4 80 81 94 93 
4 81 82 95 94 
4 82 83 96 95 
4 83 84 97 96 
4 84 85 98 97 
4 85 86 99 98 
4 86 87 100 99 
4 88 89 102 101 
4 89 90 103 102 
4 90 91 104 103 
4 91 92 105 104 
4 92 93 106 105 
4 93 94 107 106 
4 94 95 108 107 
4 95 96 109 108 
4 96 97 110 109 
4 97 98 111 110 
4 98 99 112 111 
4 99 100 113 112 
4 101 102 115 114 
4 102 103 116 115 
4 103 104 117 116 
4 104 105 118 117 
4 105 106 119 118 
4 106 107 120 119 
4 107 108 121 120 
4 108 109 122 121 
4 109 110 123 122 
4 110 111 124 123 
4 111 112 125 124 
4 112 113 126 125 
4 114 115 128 127 
4 115 116 129 128 
4 116 117 130 129 
4 117 118 131 130 
4 118 119 132 131 
4 119 120 133 132 
4 120 121 134 133 
4 121 122 135 134 
4 122 123 136 135 
4 123 124 137 136 
4 124 125 138 137 
4 125 126 139 138 
4 127 128 141 140 
4 128 129 142 141 
4 129 130 143 142 
4 130 131 144 143 
4 131 132 145 144 
4 132 133 146 145 
4 133 134 147 146 
4 134 135 148 147 
4 135 136 149 148 
4 136 137 150 149 
4 137 138 151 150 
4 138 139 152 151 
4 140 141 154 153 
4 141 142 155 154 
4 142 143 156 155 
4 143 144 157 156 
4 144 145 158 157 
4 145 146 159 158 
4 146 147 160 159 
4 147 148 161 160 
4 148 149 162 161 
4 149 150 163 162 
4 150 151 164 163 
4 151 152 165 164 
4 153 154 167 166 
4 154 155 168 167 
4 155 156 169 168 
4 156 157 170 169 
4 157 158 171 170 
4 158 159 172 171 
4 159 160 173 172 
4 160 161 174 173 
4 161 162 175 174 
4 162 163 176 175 
4 163 164 177 176 
4 164 165 178 177 
4 166 167 180 179 
4 167 168 181 180 
4 168 169 182 181 
4 169 170 183 182 
4 170 171 184 183 
4 171 172 185 184 
4 172 173 186 185 
4 173 174 187 186 
4 174 175 188 187 
4 175 176 189 188 
4 176 177 190 189 
4 178 306 308 177 
4 306 191 307 308 
4 177 308 307 190 
4 179 180 193 192 
4 180 181 194 193 
4 181 182 195 194 
4 182 183 196 195 
4 183 184 197 196 
4 184 185 198 197 
4 185 186 199 198 
4 186 187 200 199 
4 187 188 201 200 
4 188 189 202 201 
4 189 190 203 202 
4 192 193 205 204 
4 193 194 206 205 
4 194 195 207 206 
4 195 196 208 207 
4 196 197 209 208 
4 197 198 210 209 
4 198 199 211 210 
4 199 200 212 211 
4 200 201 213 212 
4 201 202 214 213 
4 202 203 215 214 
4 204 205 217 216 
4 205 206 218 217 
4 206 207 219 218 
4 207 208 220 219 
4 208 209 221 220 
4 209 210 222 221 
4 210 211 223 222 
4 211 212 224 223 
4 212 213 225 224 
4 213 214 226 225 
4 214 215 227 226 
4 12 288 289 0 
4 179 275 276 166 
4 166 276 277 153 
4 153 277 278 140 
4 140 278 279 127 
4 127 279 280 114 
4 114 280 281 101 
4 101 281 282 88 
4 88 282 283 75 
4 62 284 285 49 
4 24 287 288 12 
4 36 286 287 24 
4 49 285 286 36 
4 75 283 284 62 
4 216 272 273 204 
4 192 274 275 179 
4 204 273 274 192 
4 7 236 237 8 
4 6 235 236 7 
4 5 234 235 6 
4 9 8 237 238 
4 9 238 239 10 
4 4 233 234 5 
4 3 232 233 4 
4 2 1 230 231 
4 2 231 232 3 
4 0 229 230 1 
4 229 0 289 228 
4 239 309 310 10 
4 309 240 291 310 
4 10 310 291 11 
4 74 246 247 87 
4 253 311 313 165 
4 311 254 312 313 
4 165 313 312 178 
4 165 152 252 253 
4 61 245 246 74 
4 216 217 269 270 
4 217 218 268 269 
4 218 219 267 268 
4 219 220 266 267 
4 220 221 265 266 
4 221 222 264 265 
4 222 223 263 264 
4 216 270 271 272 
4 223 224 262 263 
4 225 261 262 224 
4 225 226 260 261 
4 87 247 248 100 
4 152 139 251 252 
4 100 248 249 113 
4 35 314 315 47 
4 314 243 295 315 
4 47 315 295 48 
4 113 249 250 126 
4 242 316 317 23 
4 316 243 314 317 
4 23 317 314 35 
4 139 126 250 251 
4 227 305 319 226 
4 305 259 318 319 
4 226 319 318 260 
4 257 320 321 215 
4 320 258 303 321 
4 215 321 303 227 
4 215 203 256 257 
4 191 306 323 299 
4 306 178 312 323 
4 323 312 254 322 
4 299 323 322 255 
4 190 307 324 203 
4 307 191 301 324 
4 203 324 301 256 
4 11 293 326 23 
4 293 241 325 326 
4 23 326 325 242 
4 48 297 328 61 
4 297 244 327 328 
4 61 328 327 245 
4 11 291 290 293 
4 240 292 290 291 
4 241 293 290 292 
4 48 295 294 297 
4 243 296 294 295 
4 244 297 294 296 
4 191 299 298 301 
4 255 300 298 299 
4 256 301 298 300 
4 227 303 302 305 
4 258 304 302 303 
4 259 305 302 304 
2 329 331 
2 331 332 
2 332 333 
2 333 334 
2 334 335 
2 335 336 
2 336 337 
2 337 338 
2 338 339 
2 339 340 
2 340 341 
2 341 342 
2 342 343 
2 343 344 
2 344 345 
2 345 346 
2 346 330 
2 349 347 
2 350 349 
2 351 350 
2 352 351 
2 353 352 
2 354 353 
2 355 354 
2 356 355 
2 357 356 
2 358 357 
2 359 358 
2 360 359 
2 361 360 
2 362 361 
2 363 362 
2 364 363 
2 348 364 
CELL_TYPES 325
9 
9 
9 
9 
9 
9 
9 
9 
9 
9 
9 
9 
9 
9 
9 
9 
9 
9 
9 
9 
9 
9 
9 
9 
9 
9 
9 
9 
9 
9 
9 
9 
9 
9 
9 
9 
9 
9 
9 
9 
9 
9 
9 
9 
9 
9 
9 
9 
9 
9 
9 
9 
9 
9 
9 
9 
9 
9 
9 
9 
9 
9 
9 
9 
9 
9 
9 
9 
9 
9 
9 
9 
9 
9 
9 
9 
9 
9 
9 
9 
9 
9 
9 
9 
9 
9 
9 
9 
9 
9 
9 
9 
9 
9 
9 
9 
9 
9 
9 
9 
9 
9 
9 
9 
9 
9 
9 
9 
9 
9 
9 
9 
9 
9 
9 
9 
9 
9 
9 
9 
9 
9 
9 
9 
9 
9 
9 
9 
9 
9 
9 
9 
9 
9 
9 
9 
9 
9 
9 
9 
9 
9 
9 
9 
9 
9 
9 
9 
9 
9 
9 
9 
9 
9 
9 
9 
9 
9 
9 
9 
9 
9 
9 
9 
9 
9 
9 
9 
9 
9 
9 
9 
9 
9 
9 
9 
9 
9 
9 
9 
9 
9 
9 
9 
9 
9 
9 
9 
9 
9 
9 
9 
9 
9 
9 
9 
9 
9 
9 
9 
9 
9 
9 
9 
9 
9 
9 
9 
9 
9 
9 
9 
9 
9 
9 
9 
9 
9 
9 
9 
9 
9 
9 
9 
9 
9 
9 
9 
9 
9 
9 
9 
9 
9 
9 
9 
9 
9 
9 
9 
9 
9 
9 
9 
9 
9 
9 
9 
9 
9 
9 
9 
9 
9 
9 
9 
9 
9 
9 
9 
9 
9 
9 
9 
9 
9 
9 
9 
9 
9 
9 
9 
9 
9 
9 
9 
9 
9 
9 
9 
9 
9 
9 
9 
9 
9 
9 
9 
9 
9 
9 
3 
3 
3 
3 
3 
3 
3 
3 
3 
3 
3 
3 
3 
3 
3 
3 
3 
3 
3 
3 
3 
3 
3 
3 
3 
3 
3 
3 
3 
3 
3 
3 
3 
3 
POINT_DATA 365
VECTORS Position float
2.3504e-04 2.3050e-04 0.0000e+00
4.6986e-04 2.3055e-04 0.0000e+00
7.0509e-04 2.3036e-04 0.0000e+00
9.4018e-04 2.3022e-04 0.0000e+00
1.1754e-03 2.3009e-04 0.0000e+00
1.4106e-03 2.2996e-04 0.0000e+00
1.6460e-03 2.2988e-04 0.0000e+00
1.8817e-03 2.2943e-04 0.0000e+00
2.1185e-03 2.2827e-04 0.0000e+00
2.3637e-03 2.2054e-04 0.0000e+00
2.6256e-03 1.9859e-04 0.0000e+00
2.8333e-03 2.2020e-04 0.0000e+00
2.3555e-04 4.6190e-04 0.0000e+00
4.7035e-04 4.6243e-04 0.0000e+00
7.0596e-04 4.6258e-04 0.0000e+00
9.4143e-04 4.6227e-04 0.0000e+00
1.1771e-03 4.6198e-04 0.0000e+00
1.4131e-03 4.6163e-04 0.0000e+00
1.6497e-03 4.6095e-04 0.0000e+00
1.8881e-03 4.5935e-04 0.0000e+00
2.1322e-03 4.5412e-04 0.0000e+00
2.3828e-03 4.4366e-04 0.0000e+00
2.6494e-03 4.1827e-04 0.0000e+00
2.9086e-03 4.0771e-04 0.0000e+00
2.3564e-04 6.9483e-04 0.0000e+00
4.7151e-04 6.9461e-04 0.0000e+00
7.0751e-04 6.9436e-04 0.0000e+00
9.4401e-04 6.9385e-04 0.0000e+00
1.1810e-03 6.9293e-04 0.0000e+00
1.4192e-03 6.9129e-04 0.0000e+00
1.6598e-03 6.8835e-04 0.0000e+00
1.9039e-03 6.8285e-04 0.0000e+00
2.1511e-03 6.7380e-04 0.0000e+00
2.4024e-03 6.5743e-04 0.0000e+00
2.6426e-03 6.4189e-04 0.0000e+00
2.8759e-03 6.2526e-04 0.0000e+00
2.3661e-04 9.2608e-04 0.0000e+00
4.7348e-04 9.2566e-04 0.0000e+00
7.1089e-04 9.2465e-04 0.0000e+00
9.4918e-04 9.2312e-04 0.0000e+00
1.1892e-03 9.2044e-04 0.0000e+00
1.4314e-03 9.1626e-04 0.0000e+00
1.6760e-03 9.0988e-04 0.0000e+00
1.9222e-03 9.0132e-04 0.0000e+00
2.1687e-03 8.8995e-04 0.0000e+00
2.4116e-03 8.7789e-04 0.0000e+00
2.6590e-03 8.5985e-04 0.0000e+00
2.9054e-03 8.3830e-04 0.0000e+00
3.0889e-03 8.7669e-04 0.0000e+00
2.3839e-04 1.1549e-03 0.0000e+00
4.7721e-04 1.1536e-03 0.0000e+00
7.1708e-04 1.1514e-03 0.0000e+00
9.5861e-04 1.1478e-03 0.0000e+00
1.2019e-03 1.1428e-03 0.0000e+00
1.4467e-03 1.1360e-03 0.0000e+00
1.6919e-03 1.1279e-03 0.0000e+00
1.9366e-03 1.1188e-03 0.0000e+00
2.1789e-03 1.1098e-03 0.0000e+00
2.4204e-03 1.1000e-03 0.0000e+00
2.6588e-03 1.0906e-03 0.0000e+00
2.9028e-03 1.0727e-03 0.0000e+00
3.1312e-03 1.0600e-03 0.0000e+00
2.4130e-04 1.3791e-03 0.0000e+00
4.8323e-04 1.3768e-03 0.0000e+00
7.2633e-04 1.3727e-03 0.0000e+00
9.7051e-04 1.3673e-03 0.0000e+00
1.2155e-03 1.3605e-03 0.0000e+00
1.4602e-03 1.3531e-03 0.0000e+00
1.7041e-03 1.3453e-03 0.0000e+00
1.9461e-03 1.3379e-03 0.0000e+00
2.1863e-03 1.3311e-03 0.0000e+00
2.4247e-03 1.3250e-03 0.0000e+00
2.6641e-03 1.3173e-03 0.0000e+00
2.9024e-03 1.3107e-03 0.0000e+00
3.1440e-03 1.3014e-03 0.0000e+00
2.4506e-04 1.5970e-03 0.0000e+00
4.9054e-04 1.5937e-03 0.0000e+00
7.3621e-04 1.5888e-03 0.0000e+00
9.8182e-04 1.5826e-03 0.0000e+00
1.2266e-03 1.5761e-03 0.0000e+00
1.4703e-03 1.5695e-03 0.0000e+00
1.7122e-03 1.5635e-03 0.0000e+00
1.9526e-03 1.5581e-03 0.0000e+00
2.1913e-03 1.5534e-03 0.0000e+00
2.4291e-03 1.5491e-03 0.0000e+00
2.6672e-03 1.5451e-03 0.0000e+00
2.9104e-03 1.5397e-03 0.0000e+00
3.1602e-03 1.5361e-03 0.0000e+00
2.4871e-04 1.8083e-03 0.0000e+00
4.9697e-04 1.8052e-03 0.0000e+00
7.4429e-04 1.8007e-03 0.0000e+00
9.9011e-04 1.7958e-03 0.0000e+00
1.2343e-03 1.7908e-03 0.0000e+00
1.4766e-03 1.7863e-03 0.0000e+00
1.7174e-03 1.7824e-03 0.0000e+00
1.9566e-03 1.7790e-03 0.0000e+00
2.1948e-03 1.7760e-03 0.0000e+00
2.4321e-03 1.7734e-03 0.0000e+00
2.6709e-03 1.7709e-03 0.0000e+00
2.9163e-03 1.7684e-03 0.0000e+00
3.1751e-03 1.7655e-03 0.0000e+00
2.5104e-04 2.0146e-03 0.0000e+00
5.0099e-04 2.0129e-03 0.0000e+00
7.4891e-04 2.0105e-03 0.0000e+00
9.9469e-04 2.0079e-03 0.0000e+00
1.2382e-03 2.0055e-03 0.0000e+00
1.4799e-03 2.0034e-03 0.0000e+00
1.7200e-03 2.0016e-03 0.0000e+00
1.9588e-03 2.0001e-03 0.0000e+00
2.1965e-03 1.9989e-03 0.0000e+00
2.4337e-03 1.9977e-03 0.0000e+00
2.6728e-03 1.9967e-03 0.0000e+00
2.9201e-03 1.9957e-03 0.0000e+00
3.1832e-03 1.9946e-03 0.0000e+00
2.5150e-04 2.2187e-03 0.0000e+00
5.0165e-04 2.2190e-03 0.0000e+00
7.4973e-04 2.2194e-03 0.0000e+00
9.9531e-04 2.2198e-03 0.0000e+00
1.2387e-03 2.2202e-03 0.0000e+00
1.4802e-03 2.2206e-03 0.0000e+00
1.7202e-03 2.2210e-03 0.0000e+00
1.9589e-03 2.2214e-03 0.0000e+00
2.1967e-03 2.2218e-03 0.0000e+00
2.4338e-03 2.2221e-03 0.0000e+00
2.6730e-03 2.2225e-03 0.0000e+00
2.9206e-03 2.2230e-03 0.0000e+00
3.1849e-03 2.2239e-03 0.0000e+00
2.4984e-04 2.4237e-03 0.0000e+00
4.9899e-04 2.4259e-03 0.0000e+00
7.4653e-04 2.4287e-03 0.0000e+00
9.9226e-04 2.4320e-03 0.0000e+00
1.2359e-03 2.4350e-03 0.0000e+00
1.4778e-03 2.4378e-03 0.0000e+00
1.7181e-03 2.4403e-03 0.0000e+00
1.9572e-03 2.4426e-03 0.0000e+00
2.1952e-03 2.4446e-03 0.0000e+00
2.4325e-03 2.4465e-03 0.0000e+00
2.6715e-03 2.4484e-03 0.0000e+00
2.9192e-03 2.4517e-03 0.0000e+00
3.1794e-03 2.4534e-03 0.0000e+00
2.4669e-04 2.6327e-03 0.0000e+00
4.9339e-04 2.6354e-03 0.0000e+00
7.3986e-04 2.6398e-03 0.0000e+00
9.8538e-04 2.6447e-03 0.0000e+00
1.2298e-03 2.6501e-03 0.0000e+00
1.4724e-03 2.6550e-03 0.0000e+00
1.7137e-03 2.6595e-03 0.0000e+00
1.9535e-03 2.6636e-03 0.0000e+00
2.1921e-03 2.6673e-03 0.0000e+00
2.4297e-03 2.6708e-03 0.0000e+00
2.6704e-03 2.6763e-03 0.0000e+00
2.9143e-03 2.6807e-03 0.0000e+00
3.1724e-03 2.6887e-03 0.0000e+00
2.4296e-04 2.8476e-03 0.0000e+00
4.8646e-04 2.8500e-03 0.0000e+00
7.3063e-04 2.8539e-03 0.0000e+00
9.7544e-04 2.8594e-03 0.0000e+00
1.2200e-03 2.8655e-03 0.0000e+00
1.4640e-03 2.8721e-03 0.0000e+00
1.7065e-03 2.8783e-03 0.0000e+00
1.9477e-03 2.8843e-03 0.0000e+00
2.1872e-03 2.8898e-03 0.0000e+00
2.4270e-03 2.8963e-03 0.0000e+00
2.6653e-03 2.9030e-03 0.0000e+00
2.9165e-03 2.9191e-03 0.0000e+00
3.1649e-03 2.9314e-03 0.0000e+00
2.3982e-04 3.0690e-03 0.0000e+00
4.8003e-04 3.0703e-03 0.0000e+00
7.2126e-04 3.0731e-03 0.0000e+00
9.6373e-04 3.0771e-03 0.0000e+00
1.2076e-03 3.0828e-03 0.0000e+00
1.4520e-03 3.0892e-03 0.0000e+00
1.6964e-03 3.0968e-03 0.0000e+00
1.9392e-03 3.1042e-03 0.0000e+00
2.1809e-03 3.1120e-03 0.0000e+00
2.4195e-03 3.1197e-03 0.0000e+00
2.6652e-03 3.1329e-03 0.0000e+00
2.9097e-03 3.1534e-03 0.0000e+00
3.1085e-03 3.1194e-03 0.0000e+00
2.3768e-04 3.2956e-03 0.0000e+00
4.7556e-04 3.2964e-03 0.0000e+00
7.1394e-04 3.2978e-03 0.0000e+00
9.5340e-04 3.3002e-03 0.0000e+00
1.1945e-03 3.3035e-03 0.0000e+00
1.4377e-03 3.3086e-03 0.0000e+00
1.6823e-03 3.3151e-03 0.0000e+00
1.9275e-03 3.3237e-03 0.0000e+00
2.1705e-03 3.3326e-03 0.0000e+00
2.4143e-03 3.3420e-03 0.0000e+00
2.6500e-03 3.3515e-03 0.0000e+00
2.8801e-03 3.3583e-03 0.0000e+00
3.1192e-03 3.3582e-03 0.0000e+00
2.3631e-04 3.5273e-03 0.0000e+00
4.7270e-04 3.5286e-03 0.0000e+00
7.0938e-04 3.5294e-03 0.0000e+00
9.4659e-04 3.5303e-03 0.0000e+00
1.1846e-03 3.5319e-03 0.0000e+00
1.4242e-03 3.5342e-03 0.0000e+00
1.6662e-03 3.5384e-03 0.0000e+00
1.9109e-03 3.5445e-03 0.0000e+00
2.1583e-03 3.5541e-03 0.0000e+00
2.4063e-03 3.5667e-03 0.0000e+00
2.6636e-03 3.5737e-03 0.0000e+00
2.9366e-03 3.5681e-03 0.0000e+00
2.3555e-04 3.7669e-03 0.0000e+00
4.7102e-04 3.7705e-03 0.0000e+00
7.0667e-04 3.7717e-03 0.0000e+00
9.4257e-04 3.7721e-03 0.0000e+00
1.1788e-03 3.7726e-03 0.0000e+00
1.4156e-03 3.7735e-03 0.0000e+00
1.6534e-03 3.7746e-03 0.0000e+00
1.8934e-03 3.7775e-03 0.0000e+00
2.1394e-03 3.7844e-03 0.0000e+00
2.3928e-03 3.7967e-03 0.0000e+00
2.6543e-03 3.8203e-03 0.0000e+00
2.9132e-03 3.8335e-03 0.0000e+00
2.3512e-04 4.0201e-03 0.0000e+00
4.7023e-04 4.0282e-03 0.0000e+00
7.0534e-04 4.0300e-03 0.0000e+00
9.4055e-04 4.0304e-03 0.0000e+00
1.1758e-03 4.0306e-03 0.0000e+00
1.4114e-03 4.0309e-03 0.0000e+00
1.6470e-03 4.0311e-03 0.0000e+00
1.8835e-03 4.0318e-03 0.0000e+00
2.1217e-03 4.0336e-03 0.0000e+00
2.3720e-03 4.0435e-03 0.0000e+00
2.6434e-03 4.0681e-03 0.0000e+00
2.8504e-03 4.0279e-03 0.0000e+00
0.0000e+00 -4.7578e-07 0.0000e+00
2.3454e-04 -1.4561e-06 0.0000e+00
4.6929e-04 -1.5649e-06 0.0000e+00
7.0409e-04 -1.5941e-06 0.0000e+00
9.3923e-04 -1.7395e-06 0.0000e+00
1.1743e-03 -1.8055e-06 0.0000e+00
1.4095e-03 -1.9231e-06 0.0000e+00
1.6446e-03 -1.9454e-06 0.0000e+00
1.8798e-03 -2.1019e-06 0.0000e+00
2.1146e-03 -2.1890e-06 0.0000e+00
2.3492e-03 -2.0772e-06 0.0000e+00
2.5842e-03 -3.1255e-06 0.0000e+00
2.8453e-03 -7.6804e-06 0.0000e+00
3.0251e-03 1.6557e-04 0.0000e+00
3.1083e-03 3.9210e-04 0.0000e+00
3.1879e-03 6.1865e-04 0.0000e+00
3.2609e-03 8.4605e-04 0.0000e+00
3.3252e-03 1.0743e-03 0.0000e+00
3.3784e-03 1.3034e-03 0.0000e+00
3.4196e-03 1.5331e-03 0.0000e+00
3.4485e-03 1.7632e-03 0.0000e+00
3.4637e-03 1.9936e-03 0.0000e+00
3.4667e-03 2.2241e-03 0.0000e+00
3.4551e-03 2.4545e-03 0.0000e+00
3.4312e-03 2.6848e-03 0.0000e+00
3.3942e-03 2.9146e-03 0.0000e+00
3.3448e-03 3.1437e-03 0.0000e+00
3.2846e-03 3.3722e-03 0.0000e+00
3.2143e-03 3.5996e-03 0.0000e+00
3.1365e-03 3.8262e-03 0.0000e+00
3.0554e-03 4.0501e-03 0.0000e+00
2.9404e-03 4.3036e-03 0.0000e+00
2.5894e-03 4.3045e-03 0.0000e+00
2.3487e-03 4.3028e-03 0.0000e+00
2.1150e-03 4.3031e-03 0.0000e+00
1.8799e-03 4.3030e-03 0.0000e+00
1.6449e-03 4.3028e-03 0.0000e+00
1.4096e-03 4.3028e-03 0.0000e+00
1.1745e-03 4.3027e-03 0.0000e+00
9.3937e-04 4.3026e-03 0.0000e+00
7.0433e-04 4.3024e-03 0.0000e+00
4.6936e-04 4.3024e-03 0.0000e+00
2.3458e-04 4.3022e-03 0.0000e+00
0.0000e+00 4.3032e-03 0.0000e+00
0.0000e+00 3.9902e-03 0.0000e+00
0.0000e+00 3.7571e-03 0.0000e+00
0.0000e+00 3.5252e-03 0.0000e+00
0.0000e+00 3.2953e-03 0.0000e+00
0.0000e+00 3.0688e-03 0.0000e+00
0.0000e+00 2.8473e-03 0.0000e+00
0.0000e+00 2.6319e-03 0.0000e+00
0.0000e+00 2.4231e-03 0.0000e+00
0.0000e+00 2.2186e-03 0.0000e+00
0.0000e+00 2.0153e-03 0.0000e+00
0.0000e+00 1.8094e-03 0.0000e+00
0.0000e+00 1.5979e-03 0.0000e+00
0.0000e+00 1.3796e-03 0.0000e+00
0.0000e+00 1.1550e-03 0.0000e+00
0.0000e+00 9.2611e-04 0.0000e+00
0.0000e+00 6.9430e-04 0.0000e+00
0.0000e+00 4.6234e-04 0.0000e+00
0.0000e+00 2.2830e-04 0.0000e+00
2.9089e-03 1.1864e-04 0.0000e+00
2.8260e-03 1.0556e-04 0.0000e+00
2.9479e-03 5.8354e-05 0.0000e+00
2.9316e-03 1.9584e-04 0.0000e+00
3.1780e-03 7.8266e-04 0.0000e+00
3.1177e-03 7.5572e-04 0.0000e+00
3.2245e-03 7.3219e-04 0.0000e+00
3.1824e-03 8.6820e-04 0.0000e+00
3.1992e-03 3.4366e-03 0.0000e+00
3.2048e-03 3.3553e-03 0.0000e+00
3.2494e-03 3.4860e-03 0.0000e+00
3.1392e-03 3.4669e-03 0.0000e+00
2.9493e-03 4.1283e-03 0.0000e+00
2.9587e-03 4.0345e-03 0.0000e+00
3.0086e-03 4.1882e-03 0.0000e+00
2.8725e-03 4.1581e-03 0.0000e+00
3.1107e-03 3.2438e-03 0.0000e+00
3.0052e-03 3.3598e-03 0.0000e+00
3.0150e-03 3.2551e-03 0.0000e+00
2.7074e-03 -9.3483e-07 0.0000e+00
2.7243e-03 9.9891e-05 0.0000e+00
3.3696e-03 3.0292e-03 0.0000e+00
3.2287e-03 3.1341e-03 0.0000e+00
3.2566e-03 3.0337e-03 0.0000e+00
3.0248e-03 6.2484e-04 0.0000e+00
3.0210e-03 7.3646e-04 0.0000e+00
3.1481e-03 5.0521e-04 0.0000e+00
3.0302e-03 5.1083e-04 0.0000e+00
2.7605e-03 4.3078e-03 0.0000e+00
2.7610e-03 4.1795e-03 0.0000e+00
3.0960e-03 3.9388e-03 0.0000e+00
2.9892e-03 3.9378e-03 0.0000e+00
3.3148e-03 3.2580e-03 0.0000e+00
3.2179e-03 3.2502e-03 0.0000e+00
3.0302e-03 3.4647e-03 0.0000e+00
3.0673e-03 2.7842e-04 0.0000e+00
2.9729e-03 2.9181e-04 0.0000e+00
3.2932e-03 9.6008e-04 0.0000e+00
3.2050e-03 9.6047e-04 0.0000e+00
0.0000 0.0000 0.0000
0.0000 0.0000 0.0000
0.0000 0.0000 0.0000
0.0000 0.0000 0.0000
0.0000 0.0000 0.0000
0.0000 0.0000 0.0000
0.0000 0.0000 0.0000
0.0000 0.0000 0.0000
0.0000 0.0000 0.0000
0.0000 0.0000 0.0000
0.0000 0.0000 0.0000
0.0000 0.0000 0.0000
0.0000 0.0000 0.0000
0.0000 0.0000 0.0000
0.0000 0.0000 0.0000
0.0000 0.0000 0.0000
0.0000 0.0000 0.0000
0.0000 0.0000 0.0000
0.0000 0.0000 0.0000
0.0000 0.0000 0.0000
0.0000 0.0000 0.0000
0.0000 0.0000 0.0000
0.0000 0.0000 0.0000
0.0000 0.0000 0.0000
0.0000 0.0000 0.0000
0.0000 0.0000 0.0000
0.0000 0.0000 0.0000
0.0000 0.0000 0.0000
0.0000 0.0000 0.0000
0.0000 0.0000 0.0000
0.0000 0.0000 0.0000
0.0000 0.0000 0.0000
0.0000 0.0000 0.0000
0.0000 0.0000 0.0000
0.0000 0.0000 0.0000
0.0000 0.0000 0.0000
VECTORS DISP float
4.3886e-07 -3.1386e-07 0.0000e+00
6.5055e-07 -6.2073e-07 0.0000e+00
1.2819e-06 -8.6078e-07 0.0000e+00
1.7599e-06 -9.6157e-07 0.0000e+00
-2.8402e-06 -2.3582e-06 0.0000e+00
3.7770e-06 -2.5874e-06 0.0000e+00
6.5208e-06 -2.6189e-06 0.0000e+00
2.6007e-04 -6.4517e-06 0.0000e+00
2.6163e-04 -6.8740e-06 0.0000e+00
2.6585e-04 -9.4223e-06 0.0000e+00
2.8238e-04 -1.9666e-05 0.0000e+00
3.0499e-04 -5.0186e-05 0.0000e+00
9.4393e-07 -2.4988e-06 0.0000e+00
1.1385e-06 -2.1234e-06 0.0000e+00
2.1445e-06 -2.0163e-06 0.0000e+00
-2.1971e-06 -3.6286e-06 0.0000e+00
4.8209e-06 -4.0553e-06 0.0000e+00
8.2151e-06 -4.3722e-06 0.0000e+00
1.3948e-05 -5.1937e-06 0.0000e+00
2.6685e-04 -1.0443e-05 0.0000e+00
2.7461e-04 -1.4568e-05 0.0000e+00
2.8913e-04 -2.4269e-05 0.0000e+00
3.0647e-04 -4.5229e-05 0.0000e+00
3.1508e-04 -6.8144e-05 0.0000e+00
1.0401e-06 -3.8000e-06 0.0000e+00
2.2973e-06 -4.0614e-06 0.0000e+00
3.6934e-06 -4.3052e-06 0.0000e+00
6.3478e-06 -6.2914e-06 0.0000e+00
1.0727e-05 -7.1851e-06 0.0000e+00
1.8085e-05 -8.9853e-06 0.0000e+00
2.9976e-05 -1.2001e-05 0.0000e+00
4.5740e-05 -1.7637e-05 0.0000e+00
2.9547e-04 -3.0144e-05 0.0000e+00
3.0915e-04 -4.4311e-05 0.0000e+00
3.1776e-04 -5.9365e-05 0.0000e+00
3.2114e-04 -7.1568e-05 0.0000e+00
2.0058e-06 -7.0590e-06 0.0000e+00
-9.3676e-07 -8.8033e-06 0.0000e+00
7.8280e-06 -9.9684e-06 0.0000e+00
1.3552e-05 -1.1476e-05 0.0000e+00
2.2688e-05 -1.4311e-05 0.0000e+00
3.6144e-05 -1.8572e-05 0.0000e+00
5.2487e-05 -2.5097e-05 0.0000e+00
7.1401e-05 -3.3641e-05 0.0000e+00
8.9565e-05 -4.4919e-05 0.0000e+00
1.1113e-04 -5.6373e-05 0.0000e+00
3.2550e-04 -6.9873e-05 0.0000e+00
3.2723e-04 -7.9178e-05 0.0000e+00
3.2867e-04 -8.7001e-05 0.0000e+00
3.7840e-06 -1.1009e-03 0.0000e+00
8.0031e-06 -9.4700e-04 0.0000e+00
1.3269e-05 -6.5289e-04 0.0000e+00
2.0195e-05 -2.8508e-04 0.0000e+00
4.7032e-05 -9.0500e-05 0.0000e+00
7.7200e-05 -1.0378e-04 0.0000e+00
1.1258e-04 -1.2187e-04 0.0000e+00
3.2634e-04 -4.9693e-04 0.0000e+00
2.9078e-04 -3.2420e-04 0.0000e+00
6.5246e-04 -7.1555e-04 0.0000e+00
5.6082e-04 -5.4124e-04 0.0000e+00
5.6218e-04 -5.4818e-04 0.0000e+00
5.6231e-04 -5.5484e-04 0.0000e+00
6.6998e-06 -1.5884e-03 0.0000e+00
1.4024e-05 -1.4309e-03 0.0000e+00
2.2514e-05 -1.1177e-03 0.0000e+00
3.2089e-05 -5.3463e-04 0.0000e+00
7.3247e-05 -1.5343e-04 0.0000e+00
1.1668e-04 -1.7115e-04 0.0000e+00
1.6614e-04 -1.9919e-04 0.0000e+00
2.8336e-04 -3.9425e-04 0.0000e+00
3.6629e-04 -4.4874e-04 0.0000e+00
7.5179e-04 -8.9627e-04 0.0000e+00
6.6051e-04 -7.3212e-04 0.0000e+00
6.6164e-04 -7.3758e-04 0.0000e+00
6.1261e-04 -6.5482e-04 0.0000e+00
1.0458e-05 -2.0776e-03 0.0000e+00
2.1329e-05 -1.9257e-03 0.0000e+00
3.2398e-05 -1.6134e-03 0.0000e+00