# vtk DataFile Version 3.0
VTK Example
ASCII
DATASET UNSTRUCTURED_GRID
POINTS 846 float 
0.000147312 0.000145167 0.0
0.00029453 0.000145126 0.0
0.000441905 0.000145057 0.0
0.000589246 0.000145038 0.0
0.000736607 0.000145027 0.0
0.000883961 0.00014502 0.0
0.00103131 0.000145016 0.0
0.00117866 0.000145022 0.0
0.00132599 0.000145034 0.0
0.00147331 0.000145061 0.0
0.00162059 0.000145083 0.0
0.00176785 0.00014511 0.0
0.00191509 0.00014516 0.0
0.0020623 0.00014518 0.0
0.00220954 0.000145122 0.0
0.00235701 0.000144853 0.0
0.00250574 0.000145298 0.0
0.00265373 0.000146613 0.0
0.00281359 0.000156293 0.0
0.00293287 0.000123781 0.0
0.00310185 0.000133227 0.0
0.000147428 0.000291054 0.0
0.00029467 0.000291153 0.0
0.000442067 0.000291149 0.0
0.000589421 0.0002911 0.0
0.000736781 0.000291086 0.0
0.000884145 0.000291077 0.0
0.0010315 0.00029108 0.0
0.00117884 0.000291094 0.0
0.00132618 0.000291131 0.0
0.00147349 0.000291175 0.0
0.00162077 0.000291246 0.0
0.00176802 0.000291304 0.0
0.00191528 0.000291343 0.0
0.00206265 0.00029131 0.0
0.00221036 0.000290944 0.0
0.00235851 0.000290327 0.0
0.00250587 0.000289533 0.0
0.00265524 0.000288352 0.0
0.00278967 0.000286235 0.0
0.0029551 0.000281512 0.0
0.00311162 0.000276644 0.0
0.000147395 0.000437468 0.0
0.000294803 0.000437435 0.0
0.000442184 0.000437416 0.0
0.000589586 0.0004374 0.0
0.000736959 0.000437377 0.0
0.000884331 0.000437378 0.0
0.00103169 0.000437393 0.0
0.00117904 0.000437427 0.0
0.00132637 0.000437481 0.0
0.00147368 0.000437562 0.0
0.00162098 0.000437637 0.0
0.00176835 0.000437677 0.0
0.00191599 0.00043744 0.0
0.00206422 0.000436948 0.0
0.00221287 0.00043621 0.0
0.00236178 0.000435151 0.0
0.00251219 0.000432796 0.0
0.00266228 0.000428794 0.0
0.00282638 0.000413995 0.0
0.0029464 0.000443494 0.0
0.00310799 0.000423071 0.0
0.00324942 0.000422597 0.0
0.000147443 0.000583759 0.0
0.000294887 0.000583765 0.0
0.000442321 0.000583747 0.0
0.000589732 0.00058374 0.0
0.00073714 0.000583747 0.0
0.000884523 0.000583754 0.0
0.0010319 0.000583789 0.0
0.00117926 0.000583848 0.0
0.00132661 0.000583915 0.0
0.00147402 0.000583956 0.0
0.00162165 0.000583847 0.0
0.00176984 0.000583416 0.0
0.00191858 0.000582726 0.0
0.00206753 0.000581755 0.0
0.00221673 0.000580663 0.0
0.0023663 0.000579134 0.0
0.00251612 0.000577099 0.0
0.00266917 0.000572701 0.0
0.00281933 0.000569988 0.0
0.00298773 0.000570958 0.0
0.00309291 0.000568373 0.0
0.00325934 0.000565212 0.0
0.000147494 0.000730005 0.0
0.000294977 0.000730014 0.0
0.000442445 0.000730027 0.0
0.000589897 0.000730039 0.0
0.000737335 0.000730057 0.0
0.000884768 0.000730095 0.0
0.00103218 0.000730133 0.0
0.00117965 0.000730166 0.0
0.0013273 0.000730086 0.0
0.0014754 0.000729717 0.0
0.00162415 0.000729058 0.0
0.0017732 0.000728171 0.0
0.00192231 0.000727126 0.0
0.00207156 0.000725958 0.0
0.00222097 0.000724469 0.0
0.00237043 0.000722726 0.0
0.00251967 0.000720668 0.0
0.00266727 0.000718641 0.0
0.00281923 0.00071566 0.0
0.00295155 0.000715592 0.0
0.0031093 0.000712903 0.0
0.003271 0.000710913 0.0
0.000147549 0.00087615 0.0
0.000295081 0.000876178 0.0
0.000442601 0.000876211 0.0
0.000590113 0.000876239 0.0
0.000737633 0.000876259 0.0
0.000885192 0.000876265 0.0
0.00103289 0.0008762 0.0
0.00118097 0.00087587 0.0
0.00132964 0.000875277 0.0
0.00147871 0.000874398 0.0
0.00162781 0.000873373 0.0
0.00177694 0.000872302 0.0
0.00192614 0.000871122 0.0
0.00207536 0.000869735 0.0
0.00222451 0.000868212 0.0
0.00237346 0.000866522 0.0
0.00252207 0.000864857 0.0
0.00267189 0.000863151 0.0
0.00281982 0.000861539 0.0
0.00298981 0.000859116 0.0
0.00309536 0.000858611 0.0
0.00326268 0.000856858 0.0
0.00341454 0.000858334 0.0
0.000147621 0.00102218 0.0
0.000295229 0.00102221 0.0
0.000442859 0.00102223 0.0
0.000590545 0.00102222 0.0
0.000738352 0.00102213 0.0
0.000886441 0.00102187 0.0
0.00103502 0.00102133 0.0
0.00118402 0.00102051 0.0
0.00133314 0.00101947 0.0
0.00148224 0.00101843 0.0
0.00163134 0.00101732 0.0
0.00178042 0.00101616 0.0
0.00192947 0.00101489 0.0
0.0020784 0.00101355 0.0
0.00222715 0.00101213 0.0
0.00237564 0.00101074 0.0
0.00252387 0.00100934 0.0
0.00267068 0.00100801 0.0
0.00281988 0.00100484 0.0
0.00295204 0.00100273 0.0
0.00311102 0.00100519 0.0
0.00326189 0.00100271 0.0
0.00341167 0.000998349 0.0
0.000147772 0.00116798 0.0
0.000295575 0.00116796 0.0
0.000443511 0.00116785 0.0
0.000591672 0.00116761 0.0
0.000740171 0.00116716 0.0
0.000889072 0.0011664 0.0
0.00103818 0.00116543 0.0
0.00118732 0.00116435 0.0
0.00133641 0.00116328 0.0
0.00148545 0.00116217 0.0
0.00163443 0.00116106 0.0
0.00178334 0.00115988 0.0
0.00193211 0.00115871 0.0
0.00208073 0.0011575 0.0
0.00222912 0.00115633 0.0
0.00237731 0.00115517 0.0
0.00252529 0.00115405 0.0
0.002674 0.00115201 0.0
0.00282136 0.00114911 0.0
0.00298203 0.00113439 0.0
0.00309848 0.00116567 0.0
0.00326135 0.00115083 0.0
0.00342924 0.00114659 0.0
0.000148127 0.00131324 0.0
0.000296389 0.00131305 0.0
0.00044489 0.00131262 0.0
0.000593706 0.00131199 0.0
0.000742799 0.00131109 0.0
0.00089198 0.00131005 0.0
0.00104115 0.00130895 0.0
0.00119023 0.00130788 0.0
0.00133924 0.0013068 0.0
0.00148816 0.00130575 0.0
0.00163697 0.00130469 0.0
0.00178563 0.00130366 0.0
0.00193415 0.00130262 0.0
0.00208248 0.00130164 0.0
0.00223064 0.00130067 0.0
0.00237862 0.00129975 0.0
0.00252644 0.00129884 0.0
0.0026741 0.00129795 0.0
0.00282437 0.00129431 0.0
0.00297264 0.00129159 0.0
0.00313037 0.0012811 0.0
0.00324729 0.00131132 0.0
0.0034062 0.00129793 0.0
0.00353627 0.00127046 0.0
0.000148756 0.00145749 0.0
0.000297675 0.00145703 0.0
0.000446778 0.00145629 0.0
0.000596032 0.00145531 0.0
0.000745315 0.00145426 0.0
0.000894544 0.00145319 0.0
0.00104366 0.00145215 0.0
0.00119266 0.00145115 0.0
0.00134154 0.00145019 0.0
0.00149031 0.00144925 0.0
0.00163891 0.00144835 0.0
0.00178738 0.00144748 0.0
0.00193567 0.00144667 0.0
0.00208382 0.00144588 0.0
0.0022318 0.00144513 0.0
0.00237965 0.0014444 0.0
0.00252736 0.0014437 0.0
0.00267493 0.00144299 0.0
0.00282237 0.0014423 0.0
0.00297335 0.00143795 0.0
0.00312145 0.00143724 0.0
0.00328011 0.00142627 0.0
0.00341231 0.00145228 0.0
0.00355091 0.00140895 0.0
0.000149499 0.00160039 0.0
0.000299044 0.00159979 0.0
0.000448583 0.00159891 0.0
0.000598036 0.00159793 0.0
0.000747371 0.00159694 0.0
0.000896557 0.001596 0.0
0.00104561 0.00159511 0.0
0.0011945 0.00159428 0.0
0.00134326 0.00159348 0.0
0.00149187 0.00159274 0.0
0.00164032 0.00159204 0.0
0.00178862 0.00159139 0.0
0.00193678 0.00159077 0.0
0.00208479 0.0015902 0.0
0.00223267 0.00158964 0.0
0.00238042 0.00158911 0.0
0.00252806 0.00158859 0.0
0.00267557 0.00158808 0.0
0.00282297 0.00158757 0.0
0.00297023 0.00158706 0.0
0.00312014 0.0015838 0.0
0.00326734 0.00158534 0.0
0.00341405 0.0015852 0.0
0.0035612 0.0015802 0.0
0.000150092 0.00174204 0.0
0.000300084 0.00174152 0.0
0.00044987 0.00174083 0.0
0.000599433 0.00174006 0.0
0.00074877 0.00173931 0.0
0.000897924 0.0017386 0.0
0.0010469 0.00173794 0.0
0.00119572 0.00173732 0.0
0.00134437 0.00173676 0.0
0.00149288 0.00173623 0.0
0.00164122 0.00173576 0.0
0.00178943 0.00173532 0.0
0.00193749 0.00173492 0.0
0.00208544 0.00173454 0.0
0.00223325 0.00173419 0.0
0.00238096 0.00173384 0.0
0.00252854 0.00173351 0.0
0.00267602 0.00173317 0.0
0.00282338 0.00173285 0.0
0.00297064 0.00173251 0.0
0.00311777 0.00173218 0.0
0.00326605 0.00173094 0.0
0.00341416 0.00173265 0.0
0.00356725 0.00172964 0.0
0.000150369 0.0018829 0.0
0.000300554 0.00188266 0.0
0.000450464 0.00188232 0.0
0.000600074 0.00188192 0.0
0.000749429 0.0018815 0.0
0.000898556 0.00188108 0.0
0.0010475 0.00188069 0.0
0.00119627 0.00188033 0.0
0.00134489 0.00188001 0.0
0.00149334 0.00187973 0.0
0.00164165 0.00187949 0.0
0.00178981 0.00187927 0.0
0.00193786 0.00187908 0.0
0.00208576 0.0018789 0.0
0.00223357 0.00187873 0.0
0.00238125 0.00187858 0.0
0.00252882 0.00187842 0.0
0.00267628 0.00187828 0.0
0.00282364 0.00187812 0.0
0.00297088 0.00187797 0.0
0.00311801 0.00187782 0.0
0.00326542 0.00187766 0.0
0.00341483 0.0018775 0.0
0.00356998 0.00187825 0.0
0.000150275 0.0020236 0.0
0.000300417 0.00202366 0.0
0.000450312 0.0020237 0.0
0.00059994 0.0020237 0.0
0.000749303 0.00202363 0.0
0.000898449 0.00202353 0.0
0.00104739 0.00202343 0.0
0.00119618 0.00202333 0.0
0.00134479 0.00202327 0.0
0.00149327 0.00202322 0.0
0.00164159 0.00202321 0.0
0.00178979 0.00202321 0.0
0.00193784 0.00202323 0.0
0.00208579 0.00202325 0.0
0.0022336 0.00202328 0.0
0.0023813 0.0020233 0.0
0.00252888 0.00202334 0.0
0.00267636 0.00202336 0.0
0.00282372 0.0020234 0.0
0.00297097 0.00202342 0.0
0.00311811 0.00202345 0.0
0.00326545 0.00202347 0.0
0.00341705 0.00202623 0.0
0.00356979 0.00202625 0.0
0.000149869 0.00216474 0.0
0.000299716 0.00216496 0.0
0.000449474 0.00216528 0.0
0.000599058 0.00216558 0.0
0.000748443 0.00216584 0.0
0.000897614 0.00216604 0.0
0.00104661 0.0021662 0.0
0.00119543 0.00216635 0.0
0.00134412 0.00216652 0.0
0.00149265 0.0021667 0.0
0.00164107 0.00216691 0.0
0.00178933 0.00216712 0.0
0.00193747 0.00216735 0.0
0.00208547 0.00216757 0.0
0.00223335 0.00216779 0.0
0.0023811 0.00216801 0.0
0.00252874 0.00216822 0.0
0.00267624 0.00216844 0.0
0.00282364 0.00216865 0.0
0.00297091 0.00216886 0.0
0.00311806 0.00216907 0.0
0.00326793 0.00217202 0.0
0.0034173 0.00217496 0.0
0.00357673 0.00218529 0.0
0.000149281 0.0023068 0.0
0.000298641 0.002307 0.0
0.000448082 0.00230733 0.0
0.000597549 0.00230779 0.0
0.000746917 0.00230825 0.0
0.00089614 0.00230868 0.0
0.00104519 0.00230907 0.0
0.00119409 0.00230944 0.0
0.00134285 0.0023098 0.0
0.00149151 0.00231018 0.0
0.00164003 0.00231057 0.0
0.00178844 0.00231099 0.0
0.0019367 0.0023114 0.0
0.00208483 0.00231183 0.0
0.00223281 0.00231225 0.0
0.00238066 0.00231266 0.0
0.00252836 0.00231307 0.0
0.00267593 0.00231347 0.0
0.00282337 0.00231388 0.0
0.00297068 0.00231428 0.0
0.00311878 0.00231559 0.0
0.00326552 0.00231781 0.0
0.00342667 0.0023318 0.0
0.00354052 0.00230073 0.0
0.000148695 0.00244999 0.0
0.000297513 0.00245003 0.0
0.000446468 0.00245021 0.0
0.000595598 0.00245051 0.0
0.000744866 0.002451 0.0
0.000894093 0.00245155 0.0
[...]
POINT_DATA 846
VECTORS Position float
1.4731e-04 1.4517e-04 0.0000e+00
2.9453e-04 1.4513e-04 0.0000e+00
4.4191e-04 1.4506e-04 0.0000e+00
5.8925e-04 1.4504e-04 0.0000e+00
7.3661e-04 1.4503e-04 0.0000e+00
8.8396e-04 1.4502e-04 0.0000e+00
1.0313e-03 1.4502e-04 0.0000e+00
1.1787e-03 1.4502e-04 0.0000e+00
1.3260e-03 1.4503e-04 0.0000e+00
1.4733e-03 1.4506e-04 0.0000e+00
1.6206e-03 1.4508e-04 0.0000e+00
1.7679e-03 1.4511e-04 0.0000e+00
1.9151e-03 1.4516e-04 0.0000e+00
2.0623e-03 1.4518e-04 0.0000e+00
2.2095e-03 1.4512e-04 0.0000e+00
2.3570e-03 1.4485e-04 0.0000e+00
2.5057e-03 1.4530e-04 0.0000e+00
2.6537e-03 1.4661e-04 0.0000e+00
2.8136e-03 1.5629e-04 0.0000e+00
2.9329e-03 1.2378e-04 0.0000e+00
3.1018e-03 1.3323e-04 0.0000e+00
1.4743e-04 2.9105e-04 0.0000e+00
2.9467e-04 2.9115e-04 0.0000e+00
4.4207e-04 2.9115e-04 0.0000e+00
5.8942e-04 2.9110e-04 0.0000e+00
7.3678e-04 2.9109e-04 0.0000e+00
8.8414e-04 2.9108e-04 0.0000e+00
1.0315e-03 2.9108e-04 0.0000e+00
1.1788e-03 2.9109e-04 0.0000e+00
1.3262e-03 2.9113e-04 0.0000e+00
1.4735e-03 2.9118e-04 0.0000e+00
1.6208e-03 2.9125e-04 0.0000e+00
1.7680e-03 2.9130e-04 0.0000e+00
1.9153e-03 2.9134e-04 0.0000e+00
2.0627e-03 2.9131e-04 0.0000e+00
2.2104e-03 2.9094e-04 0.0000e+00
2.3585e-03 2.9033e-04 0.0000e+00
2.5059e-03 2.8953e-04 0.0000e+00
2.6552e-03 2.8835e-04 0.0000e+00
2.7897e-03 2.8624e-04 0.0000e+00
2.9551e-03 2.8151e-04 0.0000e+00
3.1116e-03 2.7664e-04 0.0000e+00
1.4740e-04 4.3747e-04 0.0000e+00
2.9480e-04 4.3743e-04 0.0000e+00
4.4218e-04 4.3742e-04 0.0000e+00
5.8959e-04 4.3740e-04 0.0000e+00
7.3696e-04 4.3738e-04 0.0000e+00
8.8433e-04 4.3738e-04 0.0000e+00
1.0317e-03 4.3739e-04 0.0000e+00
1.1790e-03 4.3743e-04 0.0000e+00
1.3264e-03 4.3748e-04 0.0000e+00
1.4737e-03 4.3756e-04 0.0000e+00
1.6210e-03 4.3764e-04 0.0000e+00
1.7683e-03 4.3768e-04 0.0000e+00
1.9160e-03 4.3744e-04 0.0000e+00
2.0642e-03 4.3695e-04 0.0000e+00
2.2129e-03 4.3621e-04 0.0000e+00
2.3618e-03 4.3515e-04 0.0000e+00
2.5122e-03 4.3280e-04 0.0000e+00
2.6623e-03 4.2879e-04 0.0000e+00
2.8264e-03 4.1400e-04 0.0000e+00
2.9464e-03 4.4349e-04 0.0000e+00
3.1080e-03 4.2307e-04 0.0000e+00
3.2494e-03 4.2260e-04 0.0000e+00
1.4744e-04 5.8376e-04 0.0000e+00
2.9489e-04 5.8376e-04 0.0000e+00
4.4232e-04 5.8375e-04 0.0000e+00
5.8973e-04 5.8374e-04 0.0000e+00
7.3714e-04 5.8375e-04 0.0000e+00
8.8452e-04 5.8375e-04 0.0000e+00
1.0319e-03 5.8379e-04 0.0000e+00
1.1793e-03 5.8385e-04 0.0000e+00
1.3266e-03 5.8391e-04 0.0000e+00
1.4740e-03 5.8396e-04 0.0000e+00
1.6217e-03 5.8385e-04 0.0000e+00
1.7698e-03 5.8342e-04 0.0000e+00
1.9186e-03 5.8273e-04 0.0000e+00
2.0675e-03 5.8175e-04 0.0000e+00
2.2167e-03 5.8066e-04 0.0000e+00
2.3663e-03 5.7913e-04 0.0000e+00
2.5161e-03 5.7710e-04 0.0000e+00
2.6692e-03 5.7270e-04 0.0000e+00
2.8193e-03 5.6999e-04 0.0000e+00
2.9877e-03 5.7096e-04 0.0000e+00
3.0929e-03 5.6837e-04 0.0000e+00
3.2593e-03 5.6521e-04 0.0000e+00
1.4749e-04 7.3001e-04 0.0000e+00
2.9498e-04 7.3001e-04 0.0000e+00
4.4244e-04 7.3003e-04 0.0000e+00
5.8990e-04 7.3004e-04 0.0000e+00
7.3733e-04 7.3006e-04 0.0000e+00
8.8477e-04 7.3010e-04 0.0000e+00
1.0322e-03 7.3013e-04 0.0000e+00
1.1797e-03 7.3017e-04 0.0000e+00
1.3273e-03 7.3009e-04 0.0000e+00
1.4754e-03 7.2972e-04 0.0000e+00
1.6241e-03 7.2906e-04 0.0000e+00
1.7732e-03 7.2817e-04 0.0000e+00
1.9223e-03 7.2713e-04 0.0000e+00
2.0716e-03 7.2596e-04 0.0000e+00
2.2210e-03 7.2447e-04 0.0000e+00
2.3704e-03 7.2273e-04 0.0000e+00
2.5197e-03 7.2067e-04 0.0000e+00
2.6673e-03 7.1864e-04 0.0000e+00
2.8192e-03 7.1566e-04 0.0000e+00
2.9516e-03 7.1559e-04 0.0000e+00
3.1093e-03 7.1290e-04 0.0000e+00
3.2710e-03 7.1091e-04 0.0000e+00
1.4755e-04 8.7615e-04 0.0000e+00
2.9508e-04 8.7618e-04 0.0000e+00
4.4260e-04 8.7621e-04 0.0000e+00
5.9011e-04 8.7624e-04 0.0000e+00
7.3763e-04 8.7626e-04 0.0000e+00
8.8519e-04 8.7626e-04 0.0000e+00
1.0329e-03 8.7620e-04 0.0000e+00
1.1810e-03 8.7587e-04 0.0000e+00
1.3296e-03 8.7528e-04 0.0000e+00
1.4787e-03 8.7440e-04 0.0000e+00
1.6278e-03 8.7337e-04 0.0000e+00
1.7769e-03 8.7230e-04 0.0000e+00
1.9261e-03 8.7112e-04 0.0000e+00
2.0754e-03 8.6974e-04 0.0000e+00
2.2245e-03 8.6821e-04 0.0000e+00
2.3735e-03 8.6652e-04 0.0000e+00
2.5221e-03 8.6486e-04 0.0000e+00
2.6719e-03 8.6315e-04 0.0000e+00
2.8198e-03 8.6154e-04 0.0000e+00
2.9898e-03 8.5912e-04 0.0000e+00
3.0954e-03 8.5861e-04 0.0000e+00
3.2627e-03 8.5686e-04 0.0000e+00
3.4145e-03 8.5833e-04 0.0000e+00
1.4762e-04 1.0222e-03 0.0000e+00
2.9523e-04 1.0222e-03 0.0000e+00
4.4286e-04 1.0222e-03 0.0000e+00
5.9054e-04 1.0222e-03 0.0000e+00
7.3835e-04 1.0221e-03 0.0000e+00
8.8644e-04 1.0219e-03 0.0000e+00
1.0350e-03 1.0213e-03 0.0000e+00
1.1840e-03 1.0205e-03 0.0000e+00
1.3331e-03 1.0195e-03 0.0000e+00
1.4822e-03 1.0184e-03 0.0000e+00
1.6313e-03 1.0173e-03 0.0000e+00
1.7804e-03 1.0162e-03 0.0000e+00
1.9295e-03 1.0149e-03 0.0000e+00
2.0784e-03 1.0136e-03 0.0000e+00
2.2272e-03 1.0121e-03 0.0000e+00
2.3756e-03 1.0107e-03 0.0000e+00
2.5239e-03 1.0093e-03 0.0000e+00
2.6707e-03 1.0080e-03 0.0000e+00
2.8199e-03 1.0048e-03 0.0000e+00
2.9520e-03 1.0027e-03 0.0000e+00
3.1110e-03 1.0052e-03 0.0000e+00
3.2619e-03 1.0027e-03 0.0000e+00
3.4117e-03 9.9835e-04 0.0000e+00
1.4777e-04 1.1680e-03 0.0000e+00
2.9558e-04 1.1680e-03 0.0000e+00
4.4351e-04 1.1678e-03 0.0000e+00
5.9167e-04 1.1676e-03 0.0000e+00
7.4017e-04 1.1672e-03 0.0000e+00
8.8907e-04 1.1664e-03 0.0000e+00
1.0382e-03 1.1654e-03 0.0000e+00
1.1873e-03 1.1644e-03 0.0000e+00
1.3364e-03 1.1633e-03 0.0000e+00
1.4854e-03 1.1622e-03 0.0000e+00
1.6344e-03 1.1611e-03 0.0000e+00
1.7833e-03 1.1599e-03 0.0000e+00
1.9321e-03 1.1587e-03 0.0000e+00
2.0807e-03 1.1575e-03 0.0000e+00
2.2291e-03 1.1563e-03 0.0000e+00
2.3773e-03 1.1552e-03 0.0000e+00
2.5253e-03 1.1540e-03 0.0000e+00
2.6740e-03 1.1520e-03 0.0000e+00
2.8214e-03 1.1491e-03 0.0000e+00
2.9820e-03 1.1344e-03 0.0000e+00
3.0985e-03 1.1657e-03 0.0000e+00
3.2614e-03 1.1508e-03 0.0000e+00
3.4292e-03 1.1466e-03 0.0000e+00
1.4813e-04 1.3132e-03 0.0000e+00
2.9639e-04 1.3130e-03 0.0000e+00
4.4489e-04 1.3126e-03 0.0000e+00
5.9371e-04 1.3120e-03 0.0000e+00
7.4280e-04 1.3111e-03 0.0000e+00
8.9198e-04 1.3100e-03 0.0000e+00
1.0411e-03 1.3090e-03 0.0000e+00
1.1902e-03 1.3079e-03 0.0000e+00
1.3392e-03 1.3068e-03 0.0000e+00
1.4882e-03 1.3058e-03 0.0000e+00
1.6370e-03 1.3047e-03 0.0000e+00
1.7856e-03 1.3037e-03 0.0000e+00
1.9342e-03 1.3026e-03 0.0000e+00
2.0825e-03 1.3016e-03 0.0000e+00
2.2306e-03 1.3007e-03 0.0000e+00
2.3786e-03 1.2998e-03 0.0000e+00
2.5264e-03 1.2988e-03 0.0000e+00
2.6741e-03 1.2979e-03 0.0000e+00
2.8244e-03 1.2943e-03 0.0000e+00
2.9726e-03 1.2916e-03 0.0000e+00
3.1304e-03 1.2811e-03 0.0000e+00
3.2473e-03 1.3113e-03 0.0000e+00
3.4062e-03 1.2979e-03 0.0000e+00
3.5363e-03 1.2705e-03 0.0000e+00
1.4876e-04 1.4575e-03 0.0000e+00
2.9767e-04 1.4570e-03 0.0000e+00
4.4678e-04 1.4563e-03 0.0000e+00
5.9603e-04 1.4553e-03 0.0000e+00
7.4532e-04 1.4543e-03 0.0000e+00
8.9454e-04 1.4532e-03 0.0000e+00
1.0437e-03 1.4522e-03 0.0000e+00
1.1927e-03 1.4511e-03 0.0000e+00
1.3415e-03 1.4502e-03 0.0000e+00
1.4903e-03 1.4492e-03 0.0000e+00
1.6389e-03 1.4484e-03 0.0000e+00
1.7874e-03 1.4475e-03 0.0000e+00
1.9357e-03 1.4467e-03 0.0000e+00
2.0838e-03 1.4459e-03 0.0000e+00
2.2318e-03 1.4451e-03 0.0000e+00
2.3797e-03 1.4444e-03 0.0000e+00
2.5274e-03 1.4437e-03 0.0000e+00
2.6749e-03 1.4430e-03 0.0000e+00
2.8224e-03 1.4423e-03 0.0000e+00
2.9734e-03 1.4379e-03 0.0000e+00
3.1215e-03 1.4372e-03 0.0000e+00
3.2801e-03 1.4263e-03 0.0000e+00
3.4123e-03 1.4523e-03 0.0000e+00
3.5509e-03 1.4089e-03 0.0000e+00
1.4950e-04 1.6004e-03 0.0000e+00
2.9904e-04 1.5998e-03 0.0000e+00
4.4858e-04 1.5989e-03 0.0000e+00
5.9804e-04 1.5979e-03 0.0000e+00
7.4737e-04 1.5969e-03 0.0000e+00
8.9656e-04 1.5960e-03 0.0000e+00
1.0456e-03 1.5951e-03 0.0000e+00
1.1945e-03 1.5943e-03 0.0000e+00
1.3433e-03 1.5935e-03 0.0000e+00
1.4919e-03 1.5927e-03 0.0000e+00
1.6403e-03 1.5920e-03 0.0000e+00
1.7886e-03 1.5914e-03 0.0000e+00
1.9368e-03 1.5908e-03 0.0000e+00
2.0848e-03 1.5902e-03 0.0000e+00
2.2327e-03 1.5896e-03 0.0000e+00
2.3804e-03 1.5891e-03 0.0000e+00
2.5281e-03 1.5886e-03 0.0000e+00
2.6756e-03 1.5881e-03 0.0000e+00
2.8230e-03 1.5876e-03 0.0000e+00
2.9702e-03 1.5871e-03 0.0000e+00
3.1201e-03 1.5838e-03 0.0000e+00
3.2673e-03 1.5853e-03 0.0000e+00
3.4141e-03 1.5852e-03 0.0000e+00
3.5612e-03 1.5802e-03 0.0000e+00
1.5009e-04 1.7420e-03 0.0000e+00
3.0008e-04 1.7415e-03 0.0000e+00
4.4987e-04 1.7408e-03 0.0000e+00
5.9943e-04 1.7401e-03 0.0000e+00
7.4877e-04 1.7393e-03 0.0000e+00
8.9792e-04 1.7386e-03 0.0000e+00
1.0469e-03 1.7379e-03 0.0000e+00
1.1957e-03 1.7373e-03 0.0000e+00
1.3444e-03 1.7368e-03 0.0000e+00
1.4929e-03 1.7362e-03 0.0000e+00
1.6412e-03 1.7358e-03 0.0000e+00
1.7894e-03 1.7353e-03 0.0000e+00
1.9375e-03 1.7349e-03 0.0000e+00
2.0854e-03 1.7345e-03 0.0000e+00
2.2333e-03 1.7342e-03 0.0000e+00
2.3810e-03 1.7338e-03 0.0000e+00
2.5285e-03 1.7335e-03 0.0000e+00
2.6760e-03 1.7332e-03 0.0000e+00
2.8234e-03 1.7328e-03 0.0000e+00
2.9706e-03 1.7325e-03 0.0000e+00
3.1178e-03 1.7322e-03 0.0000e+00
3.2661e-03 1.7309e-03 0.0000e+00
3.4142e-03 1.7326e-03 0.0000e+00
3.5673e-03 1.7296e-03 0.0000e+00
1.5037e-04 1.8829e-03 0.0000e+00
3.0055e-04 1.8827e-03 0.0000e+00
4.5046e-04 1.8823e-03 0.0000e+00
6.0007e-04 1.8819e-03 0.0000e+00
7.4943e-04 1.8815e-03 0.0000e+00
8.9856e-04 1.8811e-03 0.0000e+00
1.0475e-03 1.8807e-03 0.0000e+00
1.1963e-03 1.8803e-03 0.0000e+00
1.3449e-03 1.8800e-03 0.0000e+00
1.4933e-03 1.8797e-03 0.0000e+00
1.6416e-03 1.8795e-03 0.0000e+00
1.7898e-03 1.8793e-03 0.0000e+00
1.9379e-03 1.8791e-03 0.0000e+00
2.0858e-03 1.8789e-03 0.0000e+00
2.2336e-03 1.8787e-03 0.0000e+00
2.3812e-03 1.8786e-03 0.0000e+00
2.5288e-03 1.8784e-03 0.0000e+00
2.6763e-03 1.8783e-03 0.0000e+00
2.8236e-03 1.8781e-03 0.0000e+00
2.9709e-03 1.8780e-03 0.0000e+00
3.1180e-03 1.8778e-03 0.0000e+00
3.2654e-03 1.8777e-03 0.0000e+00
3.4148e-03 1.8775e-03 0.0000e+00
3.5700e-03 1.8782e-03 0.0000e+00
1.5027e-04 2.0236e-03 0.0000e+00
3.0042e-04 2.0237e-03 0.0000e+00
4.5031e-04 2.0237e-03 0.0000e+00
5.9994e-04 2.0237e-03 0.0000e+00
7.4930e-04 2.0236e-03 0.0000e+00
8.9845e-04 2.0235e-03 0.0000e+00
1.0474e-03 2.0234e-03 0.0000e+00
1.1962e-03 2.0233e-03 0.0000e+00
1.3448e-03 2.0233e-03 0.0000e+00
1.4933e-03 2.0232e-03 0.0000e+00
1.6416e-03 2.0232e-03 0.0000e+00
1.7898e-03 2.0232e-03 0.0000e+00
1.9378e-03 2.0232e-03 0.0000e+00
2.0858e-03 2.0232e-03 0.0000e+00
2.2336e-03 2.0233e-03 0.0000e+00
2.3813e-03 2.0233e-03 0.0000e+00
2.5289e-03 2.0233e-03 0.0000e+00
2.6764e-03 2.0234e-03 0.0000e+00
2.8237e-03 2.0234e-03 0.0000e+00
2.9710e-03 2.0234e-03 0.0000e+00
3.1181e-03 2.0235e-03 0.0000e+00
3.2655e-03 2.0235e-03 0.0000e+00
3.4171e-03 2.0262e-03 0.0000e+00
3.5698e-03 2.0263e-03 0.0000e+00
1.4987e-04 2.1647e-03 0.0000e+00
2.9972e-04 2.1650e-03 0.0000e+00
4.4947e-04 2.1653e-03 0.0000e+00
5.9906e-04 2.1656e-03 0.0000e+00
7.4844e-04 2.1658e-03 0.0000e+00
8.9761e-04 2.1660e-03 0.0000e+00
1.0466e-03 2.1662e-03 0.0000e+00
1.1954e-03 2.1664e-03 0.0000e+00
1.3441e-03 2.1665e-03 0.0000e+00
1.4927e-03 2.1667e-03 0.0000e+00
1.6411e-03 2.1669e-03 0.0000e+00
1.7893e-03 2.1671e-03 0.0000e+00
1.9375e-03 2.1673e-03 0.0000e+00
2.0855e-03 2.1676e-03 0.0000e+00
2.2334e-03 2.1678e-03 0.0000e+00
2.3811e-03 2.1680e-03 0.0000e+00
2.5287e-03 2.1682e-03 0.0000e+00
2.6762e-03 2.1684e-03 0.0000e+00
2.8236e-03 2.1686e-03 0.0000e+00
2.9709e-03 2.1689e-03 0.0000e+00
3.1181e-03 2.1691e-03 0.0000e+00
3.2679e-03 2.1720e-03 0.0000e+00
3.4173e-03 2.1750e-03 0.0000e+00
3.5767e-03 2.1853e-03 0.0000e+00
1.4928e-04 2.3068e-03 0.0000e+00
2.9864e-04 2.3070e-03 0.0000e+00
4.4808e-04 2.3073e-03 0.0000e+00
5.9755e-04 2.3078e-03 0.0000e+00
7.4692e-04 2.3082e-03 0.0000e+00
8.9614e-04 2.3087e-03 0.0000e+00
1.0452e-03 2.3091e-03 0.0000e+00
1.1941e-03 2.3094e-03 0.0000e+00
1.3429e-03 2.3098e-03 0.0000e+00
1.4915e-03 2.3102e-03 0.0000e+00
1.6400e-03 2.3106e-03 0.0000e+00
1.7884e-03 2.3110e-03 0.0000e+00
1.9367e-03 2.3114e-03 0.0000e+00
2.0848e-03 2.3118e-03 0.0000e+00
2.2328e-03 2.3122e-03 0.0000e+00
2.3807e-03 2.3127e-03 0.0000e+00
2.5284e-03 2.3131e-03 0.0000e+00
2.6759e-03 2.3135e-03 0.0000e+00
2.8234e-03 2.3139e-03 0.0000e+00
2.9707e-03 2.3143e-03 0.0000e+00
3.1188e-03 2.3156e-03 0.0000e+00
3.2655e-03 2.3178e-03 0.0000e+00
3.4267e-03 2.3318e-03 0.0000e+00
3.5405e-03 2.3007e-03 0.0000e+00
1.4869e-04 2.4500e-03 0.0000e+00
2.9751e-04 2.4500e-03 0.0000e+00
4.4647e-04 2.4502e-03 0.0000e+00
5.9560e-04 2.4505e-03 0.0000e+00
7.4487e-04 2.4510e-03 0.0000e+00
8.9409e-04 2.4516e-03 0.0000e+00
1.0432e-03 2.4521e-03 0.0000e+00
1.1922e-03 2.4526e-03 0.0000e+00
1.3411e-03 2.4532e-03 0.0000e+00
1.4898e-03 2.4537e-03 0.0000e+00
1.6385e-03 2.4542e-03 0.0000e+00
1.7870e-03 2.4548e-03 0.0000e+00
1.9355e-03 2.4554e-03 0.0000e+00
2.0838e-03 2.4560e-03 0.0000e+00
2.2320e-03 2.4566e-03 0.0000e+00
2.3799e-03 2.4573e-03 0.0000e+00
2.5278e-03 2.4579e-03 0.0000e+00
2.6754e-03 2.4585e-03 0.0000e+00
2.8229e-03 2.4591e-03 0.0000e+00
2.9703e-03 2.4597e-03 0.0000e+00
3.1164e-03 2.4603e-03 0.0000e+00
3.2685e-03 2.4636e-03 0.0000e+00
3.4027e-03 2.4634e-03 0.0000e+00
3.5569e-03 2.4578e-03 0.0000e+00
1.4830e-04 2.5942e-03 0.0000e+00
2.9663e-04 2.5941e-03 0.0000e+00
4.4506e-04 2.5940e-03 0.0000e+00
5.9366e-04 2.5941e-03 0.0000e+00
7.4250e-04 2.5943e-03 0.0000e+00
8.9161e-04 2.5948e-03 0.0000e+00
1.0408e-03 2.5954e-03 0.0000e+00
1.1898e-03 2.5960e-03 0.0000e+00
1.3388e-03 2.5966e-03 0.0000e+00
1.4876e-03 2.5972e-03 0.0000e+00
1.6364e-03 2.5979e-03 0.0000e+00
1.7851e-03 2.5985e-03 0.0000e+00
1.9338e-03 2.5993e-03 0.0000e+00
2.0823e-03 2.6001e-03 0.0000e+00
2.2307e-03 2.6009e-03 0.0000e+00
2.3789e-03 2.6017e-03 0.0000e+00
2.5269e-03 2.6026e-03 0.0000e+00
2.6747e-03 2.6034e-03 0.0000e+00
2.8223e-03 2.6042e-03 0.0000e+00
2.9697e-03 2.6050e-03 0.0000e+00
3.1216e-03 2.6077e-03 0.0000e+00
3.2741e-03 2.6087e-03 0.0000e+00
3.4589e-03 2.6061e-03 0.0000e+00
1.4812e-04 2.7390e-03 0.0000e+00
2.9619e-04 2.7388e-03 0.0000e+00
4.4428e-04 2.7387e-03 0.0000e+00
5.9240e-04 2.7386e-03 0.0000e+00
7.4062e-04 2.7386e-03 0.0000e+00
8.8908e-04 2.7387e-03 0.0000e+00
1.0379e-03 2.7390e-03 0.0000e+00
1.1870e-03 2.7396e-03 0.0000e+00
1.3361e-03 2.7403e-03 0.0000e+00
1.4850e-03 2.7409e-03 0.0000e+00
1.6339e-03 2.7416e-03 0.0000e+00
1.7827e-03 2.7423e-03 0.0000e+00
1.9316e-03 2.7431e-03 0.0000e+00
2.0803e-03 2.7440e-03 0.0000e+00
2.2290e-03 2.7450e-03 0.0000e+00
2.3775e-03 2.7461e-03 0.0000e+00
2.5257e-03 2.7472e-03 0.0000e+00
2.6737e-03 2.7482e-03 0.0000e+00
2.8215e-03 2.7493e-03 0.0000e+00
2.9699e-03 2.7513e-03 0.0000e+00
3.1172e-03 2.7541e-03 0.0000e+00
3.2824e-03 2.7673e-03 0.0000e+00
3.4050e-03 2.7348e-03 0.0000e+00
1.4802e-04 2.8840e-03 0.0000e+00
2.9600e-04 2.8840e-03 0.0000e+00
4.4394e-04 2.8838e-03 0.0000e+00
5.9185e-04 2.8837e-03 0.0000e+00
7.3975e-04 2.8836e-03 0.0000e+00
8.8765e-04 2.8835e-03 0.0000e+00
1.0357e-03 2.8835e-03 0.0000e+00
1.1841e-03 2.8837e-03 0.0000e+00
1.3330e-03 2.8842e-03 0.0000e+00
1.4820e-03 2.8848e-03 0.0000e+00
1.6310e-03 2.8855e-03 0.0000e+00
1.7799e-03 2.8862e-03 0.0000e+00
1.9288e-03 2.8869e-03 0.0000e+00
2.0777e-03 2.8878e-03 0.0000e+00
2.2267e-03 2.8889e-03 0.0000e+00
2.3755e-03 2.8902e-03 0.0000e+00
2.5241e-03 2.8915e-03 0.0000e+00
2.6725e-03 2.8929e-03 0.0000e+00
2.8204e-03 2.8943e-03 0.0000e+00
2.9670e-03 2.8955e-03 0.0000e+00
3.1192e-03 2.8996e-03 0.0000e+00
3.2536e-03 2.9000e-03 0.0000e+00
3.4122e-03 2.8952e-03 0.0000e+00
1.4794e-04 3.0293e-03 0.0000e+00
2.9585e-04 3.0293e-03 0.0000e+00
4.4372e-04 3.0292e-03 0.0000e+00
5.9155e-04 3.0291e-03 0.0000e+00
7.3932e-04 3.0291e-03 0.0000e+00
8.8707e-04 3.0290e-03 0.0000e+00
1.0348e-03 3.0289e-03 0.0000e+00
1.1825e-03 3.0288e-03 0.0000e+00
1.3305e-03 3.0288e-03 0.0000e+00
1.4789e-03 3.0291e-03 0.0000e+00
1.6278e-03 3.0296e-03 0.0000e+00
1.7768e-03 3.0303e-03 0.0000e+00
1.9257e-03 3.0310e-03 0.0000e+00
2.0746e-03 3.0317e-03 0.0000e+00
2.2237e-03 3.0327e-03 0.0000e+00
2.3728e-03 3.0339e-03 0.0000e+00
2.5219e-03 3.0356e-03 0.0000e+00
2.6707e-03 3.0373e-03 0.0000e+00
2.8191e-03 3.0391e-03 0.0000e+00
2.9715e-03 3.0426e-03 0.0000e+00
3.1238e-03 3.0443e-03 0.0000e+00
3.3067e-03 3.0428e-03 0.0000e+00
1.4788e-04 3.1747e-03 0.0000e+00
2.9572e-04 3.1747e-03 0.0000e+00
4.4352e-04 3.1747e-03 0.0000e+00
5.9128e-04 3.1747e-03 0.0000e+00
7.3900e-04 3.1747e-03 0.0000e+00
8.8668e-04 3.1747e-03 0.0000e+00
1.0343e-03 3.1746e-03 0.0000e+00
1.1820e-03 3.1744e-03 0.0000e+00
1.3296e-03 3.1743e-03 0.0000e+00
1.4773e-03 3.1742e-03 0.0000e+00
1.6252e-03 3.1743e-03 0.0000e+00
1.7737e-03 3.1747e-03 0.0000e+00
1.9226e-03 3.1753e-03 0.0000e+00
2.0714e-03 3.1760e-03 0.0000e+00
2.2203e-03 3.1767e-03 0.0000e+00
2.3693e-03 3.1778e-03 0.0000e+00
2.5186e-03 3.1792e-03 0.0000e+00
2.6682e-03 3.1812e-03 0.0000e+00
2.8182e-03 3.1844e-03 0.0000e+00
2.9665e-03 3.1883e-03 0.0000e+00
3.1303e-03 3.2026e-03 0.0000e+00
3.2498e-03 3.1709e-03 0.0000e+00
1.4780e-04 3.3199e-03 0.0000e+00
2.9557e-04 3.3200e-03 0.0000e+00
4.4329e-04 3.3201e-03 0.0000e+00
5.9099e-04 3.3201e-03 0.0000e+00
7.3868e-04 3.3202e-03 0.0000e+00
8.8635e-04 3.3201e-03 0.0000e+00
1.0340e-03 3.3201e-03 0.0000e+00
1.1816e-03 3.3200e-03 0.0000e+00
1.3292e-03 3.3199e-03 0.0000e+00
1.4767e-03 3.3198e-03 0.0000e+00
1.6243e-03 3.3196e-03 0.0000e+00
1.7719e-03 3.3196e-03 0.0000e+00
1.9199e-03 3.3198e-03 0.0000e+00
2.0685e-03 3.3203e-03 0.0000e+00
2.2171e-03 3.3210e-03 0.0000e+00
2.3658e-03 3.3218e-03 0.0000e+00
2.5148e-03 3.3228e-03 0.0000e+00
2.6643e-03 3.3241e-03 0.0000e+00
2.8134e-03 3.3266e-03 0.0000e+00
2.9662e-03 3.3326e-03 0.0000e+00
3.0999e-03 3.3350e-03 0.0000e+00
3.2483e-03 3.3308e-03 0.0000e+00
1.4769e-04 3.4643e-03 0.0000e+00
2.9536e-04 3.4639e-03 0.0000e+00
4.4302e-04 3.4640e-03 0.0000e+00
5.9068e-04 3.4640e-03 0.0000e+00
7.3834e-04 3.4641e-03 0.0000e+00
8.8600e-04 3.4641e-03 0.0000e+00
1.0337e-03 3.4641e-03 0.0000e+00
1.1813e-03 3.4640e-03 0.0000e+00
1.3289e-03 3.4640e-03 0.0000e+00
1.4764e-03 3.4639e-03 0.0000e+00
1.6239e-03 3.4638e-03 0.0000e+00
1.7714e-03 3.4636e-03 0.0000e+00
1.9189e-03 3.4636e-03 0.0000e+00
2.0665e-03 3.4636e-03 0.0000e+00
2.2146e-03 3.4641e-03 0.0000e+00
2.3629e-03 3.4648e-03 0.0000e+00
2.5114e-03 3.4654e-03 0.0000e+00
2.6603e-03 3.4662e-03 0.0000e+00
2.8141e-03 3.4691e-03 0.0000e+00
2.9715e-03 3.4743e-03 0.0000e+00
3.1457e-03 3.4777e-03 0.0000e+00
1.4754e-04 3.6056e-03 0.0000e+00
2.9511e-04 3.6044e-03 0.0000e+00
4.4271e-04 3.6042e-03 0.0000e+00
5.9035e-04 3.6042e-03 0.0000e+00
7.3800e-04 3.6043e-03 0.0000e+00
8.8565e-04 3.6043e-03 0.0000e+00
1.0333e-03 3.6043e-03 0.0000e+00
1.1809e-03 3.6043e-03 0.0000e+00
1.3285e-03 3.6043e-03 0.0000e+00
1.4761e-03 3.6042e-03 0.0000e+00
1.6236e-03 3.6042e-03 0.0000e+00
1.7711e-03 3.6041e-03 0.0000e+00
1.9185e-03 3.6040e-03 0.0000e+00
2.0659e-03 3.6040e-03 0.0000e+00
2.2134e-03 3.6041e-03 0.0000e+00
2.3612e-03 3.6045e-03 0.0000e+00
2.5093e-03 3.6050e-03 0.0000e+00
2.6589e-03 3.6061e-03 0.0000e+00
2.8110e-03 3.6092e-03 0.0000e+00
2.9803e-03 3.6232e-03 0.0000e+00
3.1199e-03 3.6109e-03 0.0000e+00
0.0000e+00 -4.5963e-07 0.0000e+00
1.4716e-04 -7.6837e-07 0.0000e+00
2.9441e-04 -7.7971e-07 0.0000e+00
4.4170e-04 -7.7604e-07 0.0000e+00
5.8908e-04 -7.9997e-07 0.0000e+00
7.3643e-04 -7.8897e-07 0.0000e+00
8.8378e-04 -7.9287e-07 0.0000e+00
1.0311e-03 -7.9006e-07 0.0000e+00
1.1785e-03 -7.9438e-07 0.0000e+00
1.3258e-03 -7.9352e-07 0.0000e+00
1.4731e-03 -7.9553e-07 0.0000e+00
1.6204e-03 -8.0799e-07 0.0000e+00
1.7677e-03 -8.0055e-07 0.0000e+00
1.9149e-03 -8.0359e-07 0.0000e+00
2.0621e-03 -8.1117e-07 0.0000e+00
2.2093e-03 -8.3780e-07 0.0000e+00
2.3566e-03 -9.8461e-07 0.0000e+00
2.5040e-03 -1.0793e-06 0.0000e+00
2.6519e-03 -1.2982e-06 0.0000e+00
2.8000e-03 -1.3571e-06 0.0000e+00
2.9487e-03 -1.4852e-06 0.0000e+00
3.1028e-03 -1.8492e-06 0.0000e+00
3.2047e-03 -1.7676e-06 0.0000e+00
3.2375e-03 1.2976e-04 0.0000e+00
3.2833e-03 2.7341e-04 0.0000e+00
3.3479e-03 4.1793e-04 0.0000e+00
3.4145e-03 5.6301e-04 0.0000e+00
3.4777e-03 7.0842e-04 0.0000e+00
3.5355e-03 8.5406e-04 0.0000e+00
3.5865e-03 9.9992e-04 0.0000e+00
3.6665e-03 1.2920e-03 0.0000e+00
3.6950e-03 1.4382e-03 0.0000e+00
3.7149e-03 1.5845e-03 0.0000e+00
3.7269e-03 1.7308e-03 0.0000e+00