# vtk DataFile Version 3.0
VTK Example
ASCII
DATASET UNSTRUCTURED_GRID
POINTS 972 float 
0 -1.00877e-06 0.0
0.00281326 -2.56548e-06 0.0
0.00281335 0.00493418 0.0
0 0.00493348 0.0
0.000144991 -1.5165e-06 0.0
0.000301742 -1.54674e-06 0.0
0.00045491 -1.53678e-06 0.0
0.000608489 -1.55224e-06 0.0
0.000762923 -1.56569e-06 0.0
0.000918073 -1.58546e-06 0.0
0.00107341 -1.60773e-06 0.0
0.00122987 -1.6417e-06 0.0
0.00138821 -1.67771e-06 0.0
0.00154631 -1.72297e-06 0.0
0.00170548 -1.77564e-06 0.0
0.00186584 -1.83587e-06 0.0
0.0020279 -1.88428e-06 0.0
0.00219195 -1.92972e-06 0.0
0.00236002 -2.05914e-06 0.0
0.00254153 -2.10107e-06 0.0
0.00284629 4.35791e-05 0.0
0.0028592 0.000111795 0.0
0.00287169 0.000196666 0.0
0.00288547 0.000288635 0.0
0.00290251 0.000384583 0.0
0.00292149 0.000481481 0.0
0.0029419 0.000578719 0.0
0.0029633 0.000676441 0.0
0.00298572 0.000775271 0.0
0.00300862 0.000873828 0.0
0.00303196 0.000972941 0.0
0.0030554 0.00107259 0.0
0.00307865 0.00117283 0.0
0.00310139 0.00127363 0.0
0.0031233 0.00137501 0.0
0.0031441 0.00147692 0.0
0.00316353 0.00157937 0.0
0.00318136 0.00168231 0.0
0.0031974 0.00178572 0.0
0.00321146 0.00188954 0.0
0.00322341 0.00199373 0.0
0.00323311 0.00209823 0.0
0.00324047 0.00220297 0.0
0.00324543 0.00230789 0.0
0.00324793 0.00241292 0.0
0.00324794 0.0025187 0.0
0.00324546 0.00262373 0.0
0.00324053 0.00272865 0.0
0.00323319 0.0028334 0.0
0.00322351 0.0029379 0.0
0.00321158 0.00304209 0.0
0.00319754 0.00314592 0.0
0.00318152 0.00324934 0.0
0.0031637 0.00335229 0.0
0.00314427 0.00345475 0.0
0.00312348 0.00355668 0.0
0.00310157 0.00365807 0.0
0.00307883 0.00375889 0.0
0.00305557 0.00385915 0.0
0.00303212 0.00395882 0.0
0.00300877 0.00405794 0.0
0.00298585 0.00415651 0.0
0.00296341 0.00425535 0.0
0.00294201 0.00435308 0.0
0.00292153 0.00445057 0.0
0.00290256 0.00454739 0.0
0.00288554 0.00464325 0.0
0.00287177 0.00473519 0.0
0.0028593 0.00481996 0.0
0.00284639 0.00488813 0.0
0.00254149 0.00493372 0.0
0.00235995 0.00493368 0.0
0.00219186 0.00493355 0.0
0.00202782 0.0049335 0.0
0.00186576 0.00493345 0.0
0.0017054 0.00493339 0.0
0.00154623 0.00493334 0.0
0.00138813 0.0049333 0.0
0.00122979 0.00493326 0.0
0.00107331 0.00493323 0.0
0.000917953 0.0049332 0.0
0.000762754 0.00493318 0.0
0.000608222 0.00493317 0.0
0.000454553 0.00493315 0.0
0.000301681 0.00493316 0.0
0.000150027 0.00493309 0.0
0 0.0047939 0.0
0 0.0046589 0.0
0 0.00452675 0.0
0 0.00439681 0.0
0 0.00426884 0.0
0 0.00414288 0.0
0 0.00401906 0.0
0 0.0038978 0.0
0 0.00377864 0.0
0 0.00366379 0.0
0 0.00355289 0.0
0 0.00344665 0.0
0 0.00334572 0.0
0 0.00325102 0.0
0 0.00316283 0.0
0 0.00308107 0.0
0 0.00300489 0.0
0 0.00293335 0.0
0 0.00286544 0.0
0 0.0028003 0.0
0 0.00273722 0.0
0 0.00267565 0.0
0 0.00261513 0.0
0 0.00255529 0.0
0 0.00249585 0.0
0 0.00243612 0.0
0 0.00237667 0.0
0 0.00231683 0.0
0 0.00225629 0.0
0 0.00219471 0.0
0 0.00213162 0.0
0 0.00206646 0.0
0 0.00199852 0.0
0 0.00192695 0.0
0 0.00185073 0.0
0 0.00176892 0.0
0 0.00168069 0.0
0 0.00158594 0.0
0 0.00148496 0.0
0 0.00137868 0.0
0 0.00126773 0.0
0 0.00115284 0.0
0 0.00103363 0.0
0 0.000912302 0.0
0 0.000788745 0.0
0 0.000662564 0.0
0 0.000534205 0.0
0 0.000403445 0.0
0 0.000268895 0.0
0 0.00012651 0.0
0.000149804 0.000133474 0.0
0.000152901 0.000268828 0.0
0.000155076 0.000402644 0.0
0.000156704 0.000533501 0.0
0.000158056 0.000661963 0.0
0.000159411 0.000788221 0.0
0.000160934 0.000911728 0.0
0.000162744 0.00103304 0.0
0.000164936 0.00115216 0.0
0.00016757 0.00126711 0.0
0.000170778 0.00137807 0.0
0.000174805 0.00148442 0.0
0.000179984 0.00158505 0.0
0.000186341 0.00167924 0.0
0.000193455 0.00176652 0.0
0.000200583 0.0018475 0.0
0.000207156 0.00192303 0.0
0.000212827 0.00199424 0.0
0.000217491 0.00206211 0.0
0.00022118 0.00212748 0.0
0.000224002 0.00219102 0.0
0.000226075 0.00225324 0.0
0.000227511 0.00231455 0.0
0.000228411 0.00237526 0.0
0.000228847 0.00243564 0.0
0.00022885 0.00249633 0.0
0.00022842 0.0025567 0.0
0.000227525 0.00261741 0.0
0.000226095 0.00267871 0.0
0.000224028 0.00274092 0.0
0.000221212 0.00280444 0.0
0.000217528 0.00286979 0.0
0.00021287 0.00293763 0.0
0.000207204 0.00300881 0.0
0.000200635 0.0030843 0.0
0.000193509 0.00316523 0.0
0.000186392 0.00325247 0.0
0.000180028 0.00334661 0.0
0.000174843 0.00344719 0.0
0.000170811 0.0035535 0.0
0.000167601 0.00366441 0.0
0.000164968 0.00377932 0.0
0.000162781 0.00389839 0.0
0.00016098 0.00401963 0.0
0.000159473 0.00414339 0.0
0.000158169 0.00426941 0.0
0.000156969 0.00439745 0.0
0.000155751 0.00452751 0.0
0.000154358 0.00465979 0.0
0.000152554 0.00479481 0.0
0.000304802 0.000134876 0.0
0.000307229 0.000268958 0.0
0.000310234 0.00040147 0.0
0.000313206 0.000532091 0.0
0.000315948 0.00066059 0.0
0.000318743 0.000786772 0.0
0.000321868 0.000910148 0.0
0.000325547 0.00103115 0.0
0.000329966 0.00114991 0.0
0.00033527 0.00126428 0.0
0.000341802 0.00137453 0.0
0.000350276 0.00147958 0.0
0.000361237 0.00157842 0.0
0.000374345 0.00167021 0.0
0.000388274 0.0017554 0.0
0.00040176 0.00183486 0.0
0.000413888 0.00190981 0.0
0.00042424 0.00198124 0.0
0.000432713 0.00205001 0.0
0.000439416 0.00211676 0.0
0.00044455 0.00218199 0.0
0.000448344 0.0022461 0.0
0.000450994 0.0023094 0.0
0.000452663 0.00237216 0.0
0.000453471 0.0024346 0.0
0.000453477 0.00249736 0.0
0.00045268 0.0025598 0.0
0.000451023 0.00262255 0.0
0.000448384 0.00268584 0.0
0.000444601 0.00274994 0.0
0.000439477 0.00281515 0.0
0.000432785 0.00288188 0.0
0.000424323 0.00295063 0.0
0.00041398 0.00302204 0.0
0.000401859 0.00309695 0.0
0.000388378 0.00317637 0.0
0.000374448 0.00326152 0.0
0.000361331 0.00335325 0.0
0.000350356 0.00345203 0.0
0.000341871 0.00355704 0.0
0.000335335 0.00366724 0.0
0.000330033 0.00378156 0.0
0.000325622 0.00390027 0.0
0.000321964 0.0040212 0.0
0.000318879 0.00414482 0.0
0.000316205 0.00427074 0.0
0.000313749 0.00439881 0.0
0.000311275 0.00452895 0.0
0.000308515 0.00466133 0.0
0.000305292 0.00479606 0.0
0.00045892 0.000134355 0.0
0.000462492 0.000268206 0.0
0.000466063 0.000400129 0.0
0.00046996 0.000530204 0.0
0.000474013 0.000658444 0.0
0.000478327 0.00078445 0.0
0.00048318 0.000907472 0.0
0.000488872 0.00102801 0.0
0.000495708 0.00114603 0.0
0.000503954 0.00125945 0.0
0.00051441 0.0013681 0.0
0.000528288 0.00147077 0.0
0.000545796 0.00156623 0.0
0.000565315 0.00165481 0.0
0.000584895 0.00173751 0.0
0.000603048 0.00181576 0.0
0.000619044 0.00189063 0.0
0.000632602 0.00196296 0.0
0.000643776 0.00203335 0.0
0.000652737 0.00210219 0.0
0.000659706 0.00216983 0.0
0.000664948 0.00223653 0.0
0.000668684 0.00230252 0.0
0.00067108 0.00236801 0.0
0.000672252 0.00243321 0.0
0.00067226 0.00249874 0.0
0.000671105 0.00256394 0.0
0.000668725 0.00262943 0.0
0.000665005 0.00269541 0.0
0.000659778 0.00276209 0.0
0.000652824 0.00282972 0.0
0.000643878 0.00289855 0.0
0.000632718 0.00296891 0.0
0.000619173 0.00304122 0.0
0.000603188 0.00311606 0.0
0.000585044 0.00319427 0.0
0.000565467 0.00327692 0.0
0.000545943 0.00336546 0.0
0.000528419 0.00346086 0.0
0.000514522 0.00356347 0.0
0.000504056 0.00367208 0.0
0.000495812 0.00378545 0.0
0.000488988 0.00390341 0.0
0.00048333 0.00402388 0.0
0.000478544 0.00414713 0.0
0.000474404 0.0042729 0.0
0.000470621 0.00440087 0.0
0.000466867 0.00453099 0.0
0.000462931 0.00466316 0.0
0.000458771 0.00479727 0.0
0.000613076 0.000133397 0.0
0.00061764 0.000266664 0.0
0.000622222 0.000398273 0.0
0.000626999 0.000527905 0.0
0.000632235 0.000655702 0.0
0.000638104 0.000781247 0.0
0.000644828 0.000903763 0.0
0.000652745 0.00102351 0.0
0.000662295 0.00114049 0.0
0.000674056 0.00125227 0.0
0.000689559 0.00135837 0.0
0.00071009 0.00145713 0.0
0.000734041 0.00154859 0.0
0.000758746 0.00163395 0.0
0.000782083 0.00171498 0.0
0.000803076 0.00179288 0.0
0.000821321 0.00186853 0.0
0.000836827 0.00194242 0.0
0.000849739 0.0020149 0.0
0.000860291 0.00208622 0.0
0.000868688 0.00215656 0.0
0.00087512 0.0022261 0.0
0.000879788 0.00229501 0.0
0.000882832 0.00236348 0.0
0.000884341 0.00243168 0.0
0.000884351 0.00250025 0.0
0.000882864 0.00256845 0.0
0.00087984 0.00263691 0.0
0.000875191 0.00270582 0.0
0.000868778 0.00277535 0.0
0.0008604 0.00284568 0.0
0.000849865 0.00291698 0.0
0.000836969 0.00298945 0.0
0.00082148 0.00306332 0.0
0.000803249 0.00313894 0.0
0.000782268 0.00321681 0.0
0.00075894 0.0032978 0.0
0.000734237 0.00338311 0.0
0.000710277 0.00347452 0.0
0.000689723 0.00357323 0.0
0.0006742 0.00367927 0.0
0.000662437 0.00379099 0.0
0.000652902 0.00390792 0.0
0.00064503 0.0040276 0.0
0.000638383 0.00415037 0.0
0.000632658 0.00427576 0.0
0.000627504 0.0044035 0.0
0.00062257 0.00453331 0.0
0.000617693 0.004665 0.0
0.000612901 0.00479833 0.0
0.000767964 0.000132419 0.0
0.000773231 0.000264944 0.0
0.000778738 0.000395964 0.0
0.000784582 0.000525138 0.0
0.000791042 0.000652359 0.0
0.000798521 0.000777261 0.0
0.000807281 0.000898917 0.0
0.000817696 0.00101761 0.0
0.000830489 0.00113296 0.0
0.000846833 0.00124223 0.0
0.000869124 0.00134417 0.0
0.000896514 0.00143827 0.0
0.000925573 0.00152589 0.0
0.000953339 0.0016093 0.0
0.0009786 0.00168987 0.0
0.00100091 0.00176852 0.0
0.0010203 0.00184566 0.0
0.00103692 0.00192158 0.0
0.00105099 0.00199642 0.0
0.00106267 0.00207031 0.0
0.00107217 0.00214338 0.0
0.0010796 0.00221576 0.0
0.00108505 0.00228758 0.0
0.00108864 0.00235899 0.0
0.00109043 0.00243017 0.0
0.00109045 0.00250175 0.0
0.00108868 0.00257292 0.0
0.00108511 0.00264434 0.0
0.00107968 0.00271615 0.0
0.00107227 0.00278852 0.0
0.0010628 0.00286158 0.0
0.00105113 0.00293546 0.0
0.00103709 0.00301028 0.0
0.00102048 0.00308618 0.0
0.00100111 0.0031633 0.0
0.000978815 0.00324192 0.0
0.000953568 0.00332246 0.0
0.00092581 0.00340584 0.0
0.000896752 0.00349341 0.0
0.000869346 0.00358745 0.0
0.000847024 0.00368932 0.0
0.000830668 0.00379854 0.0
0.00081789 0.00391384 0.0
0.000807518 0.00403248 0.0
0.000798802 0.00415443 0.0
0.00079137 0.00427927 0.0
0.000784845 0.00440649 0.0
0.000778843 0.00453577 0.0
0.000773185 0.00466677 0.0
0.000767824 0.00479931 0.0
0.000923543 0.000131477 0.0
0.000929409 0.00026316 0.0
0.000935748 0.000393467 0.0
[...]
POINT_DATA 972
VECTORS Position float
0.0000e+00 -1.0088e-06 0.0000e+00
2.8133e-03 -2.5655e-06 0.0000e+00
2.8134e-03 4.9342e-03 0.0000e+00
0.0000e+00 4.9335e-03 0.0000e+00
1.4499e-04 -1.5165e-06 0.0000e+00
3.0174e-04 -1.5467e-06 0.0000e+00
4.5491e-04 -1.5368e-06 0.0000e+00
6.0849e-04 -1.5522e-06 0.0000e+00
7.6292e-04 -1.5657e-06 0.0000e+00
9.1807e-04 -1.5855e-06 0.0000e+00
1.0734e-03 -1.6077e-06 0.0000e+00
1.2299e-03 -1.6417e-06 0.0000e+00
1.3882e-03 -1.6777e-06 0.0000e+00
1.5463e-03 -1.7230e-06 0.0000e+00
1.7055e-03 -1.7756e-06 0.0000e+00
1.8658e-03 -1.8359e-06 0.0000e+00
2.0279e-03 -1.8843e-06 0.0000e+00
2.1919e-03 -1.9297e-06 0.0000e+00
2.3600e-03 -2.0591e-06 0.0000e+00
2.5415e-03 -2.1011e-06 0.0000e+00
2.8463e-03 4.3579e-05 0.0000e+00
2.8592e-03 1.1180e-04 0.0000e+00
2.8717e-03 1.9667e-04 0.0000e+00
2.8855e-03 2.8863e-04 0.0000e+00
2.9025e-03 3.8458e-04 0.0000e+00
2.9215e-03 4.8148e-04 0.0000e+00
2.9419e-03 5.7872e-04 0.0000e+00
2.9633e-03 6.7644e-04 0.0000e+00
2.9857e-03 7.7527e-04 0.0000e+00
3.0086e-03 8.7383e-04 0.0000e+00
3.0320e-03 9.7294e-04 0.0000e+00
3.0554e-03 1.0726e-03 0.0000e+00
3.0787e-03 1.1728e-03 0.0000e+00
3.1014e-03 1.2736e-03 0.0000e+00
3.1233e-03 1.3750e-03 0.0000e+00
3.1441e-03 1.4769e-03 0.0000e+00
3.1635e-03 1.5794e-03 0.0000e+00
3.1814e-03 1.6823e-03 0.0000e+00
3.1974e-03 1.7857e-03 0.0000e+00
3.2115e-03 1.8895e-03 0.0000e+00
3.2234e-03 1.9937e-03 0.0000e+00
3.2331e-03 2.0982e-03 0.0000e+00
3.2405e-03 2.2030e-03 0.0000e+00
3.2454e-03 2.3079e-03 0.0000e+00
3.2479e-03 2.4129e-03 0.0000e+00
3.2479e-03 2.5187e-03 0.0000e+00
3.2455e-03 2.6237e-03 0.0000e+00
3.2405e-03 2.7286e-03 0.0000e+00
3.2332e-03 2.8334e-03 0.0000e+00
3.2235e-03 2.9379e-03 0.0000e+00
3.2116e-03 3.0421e-03 0.0000e+00
3.1975e-03 3.1459e-03 0.0000e+00
3.1815e-03 3.2493e-03 0.0000e+00
3.1637e-03 3.3523e-03 0.0000e+00
3.1443e-03 3.4547e-03 0.0000e+00
3.1235e-03 3.5567e-03 0.0000e+00
3.1016e-03 3.6581e-03 0.0000e+00
3.0788e-03 3.7589e-03 0.0000e+00
3.0556e-03 3.8591e-03 0.0000e+00
3.0321e-03 3.9588e-03 0.0000e+00
3.0088e-03 4.0579e-03 0.0000e+00
2.9858e-03 4.1565e-03 0.0000e+00
2.9634e-03 4.2554e-03 0.0000e+00
2.9420e-03 4.3531e-03 0.0000e+00
2.9215e-03 4.4506e-03 0.0000e+00
2.9026e-03 4.5474e-03 0.0000e+00
2.8855e-03 4.6433e-03 0.0000e+00
2.8718e-03 4.7352e-03 0.0000e+00
2.8593e-03 4.8200e-03 0.0000e+00
2.8464e-03 4.8881e-03 0.0000e+00
2.5415e-03 4.9337e-03 0.0000e+00
2.3599e-03 4.9337e-03 0.0000e+00
2.1919e-03 4.9335e-03 0.0000e+00
2.0278e-03 4.9335e-03 0.0000e+00
1.8658e-03 4.9335e-03 0.0000e+00
1.7054e-03 4.9334e-03 0.0000e+00
1.5462e-03 4.9333e-03 0.0000e+00
1.3881e-03 4.9333e-03 0.0000e+00
1.2298e-03 4.9333e-03 0.0000e+00
1.0733e-03 4.9332e-03 0.0000e+00
9.1795e-04 4.9332e-03 0.0000e+00
7.6275e-04 4.9332e-03 0.0000e+00
6.0822e-04 4.9332e-03 0.0000e+00
4.5455e-04 4.9332e-03 0.0000e+00
3.0168e-04 4.9332e-03 0.0000e+00
1.5003e-04 4.9331e-03 0.0000e+00
0.0000e+00 4.7939e-03 0.0000e+00
0.0000e+00 4.6589e-03 0.0000e+00
0.0000e+00 4.5268e-03 0.0000e+00
0.0000e+00 4.3968e-03 0.0000e+00
0.0000e+00 4.2688e-03 0.0000e+00
0.0000e+00 4.1429e-03 0.0000e+00
0.0000e+00 4.0191e-03 0.0000e+00
0.0000e+00 3.8978e-03 0.0000e+00
0.0000e+00 3.7786e-03 0.0000e+00
0.0000e+00 3.6638e-03 0.0000e+00
0.0000e+00 3.5529e-03 0.0000e+00
0.0000e+00 3.4466e-03 0.0000e+00
0.0000e+00 3.3457e-03 0.0000e+00
0.0000e+00 3.2510e-03 0.0000e+00
0.0000e+00 3.1628e-03 0.0000e+00
0.0000e+00 3.0811e-03 0.0000e+00
0.0000e+00 3.0049e-03 0.0000e+00
0.0000e+00 2.9333e-03 0.0000e+00
0.0000e+00 2.8654e-03 0.0000e+00
0.0000e+00 2.8003e-03 0.0000e+00
0.0000e+00 2.7372e-03 0.0000e+00
0.0000e+00 2.6757e-03 0.0000e+00
0.0000e+00 2.6151e-03 0.0000e+00
0.0000e+00 2.5553e-03 0.0000e+00
0.0000e+00 2.4958e-03 0.0000e+00
0.0000e+00 2.4361e-03 0.0000e+00
0.0000e+00 2.3767e-03 0.0000e+00
0.0000e+00 2.3168e-03 0.0000e+00
0.0000e+00 2.2563e-03 0.0000e+00
0.0000e+00 2.1947e-03 0.0000e+00
0.0000e+00 2.1316e-03 0.0000e+00
0.0000e+00 2.0665e-03 0.0000e+00
0.0000e+00 1.9985e-03 0.0000e+00
0.0000e+00 1.9269e-03 0.0000e+00
0.0000e+00 1.8507e-03 0.0000e+00
0.0000e+00 1.7689e-03 0.0000e+00
0.0000e+00 1.6807e-03 0.0000e+00
0.0000e+00 1.5859e-03 0.0000e+00
0.0000e+00 1.4850e-03 0.0000e+00
0.0000e+00 1.3787e-03 0.0000e+00
0.0000e+00 1.2677e-03 0.0000e+00
0.0000e+00 1.1528e-03 0.0000e+00
0.0000e+00 1.0336e-03 0.0000e+00
0.0000e+00 9.1230e-04 0.0000e+00
0.0000e+00 7.8875e-04 0.0000e+00
0.0000e+00 6.6256e-04 0.0000e+00
0.0000e+00 5.3421e-04 0.0000e+00
0.0000e+00 4.0345e-04 0.0000e+00
0.0000e+00 2.6890e-04 0.0000e+00
0.0000e+00 1.2651e-04 0.0000e+00
1.4980e-04 1.3347e-04 0.0000e+00
1.5290e-04 2.6883e-04 0.0000e+00
1.5508e-04 4.0264e-04 0.0000e+00
1.5670e-04 5.3350e-04 0.0000e+00
1.5806e-04 6.6196e-04 0.0000e+00
1.5941e-04 7.8822e-04 0.0000e+00
1.6093e-04 9.1173e-04 0.0000e+00
1.6274e-04 1.0330e-03 0.0000e+00
1.6494e-04 1.1522e-03 0.0000e+00
1.6757e-04 1.2671e-03 0.0000e+00
1.7078e-04 1.3781e-03 0.0000e+00
1.7480e-04 1.4844e-03 0.0000e+00
1.7998e-04 1.5851e-03 0.0000e+00
1.8634e-04 1.6792e-03 0.0000e+00
1.9346e-04 1.7665e-03 0.0000e+00
2.0058e-04 1.8475e-03 0.0000e+00
2.0716e-04 1.9230e-03 0.0000e+00
2.1283e-04 1.9942e-03 0.0000e+00
2.1749e-04 2.0621e-03 0.0000e+00
2.2118e-04 2.1275e-03 0.0000e+00
2.2400e-04 2.1910e-03 0.0000e+00
2.2607e-04 2.2532e-03 0.0000e+00
2.2751e-04 2.3145e-03 0.0000e+00
2.2841e-04 2.3753e-03 0.0000e+00
2.2885e-04 2.4356e-03 0.0000e+00
2.2885e-04 2.4963e-03 0.0000e+00
2.2842e-04 2.5567e-03 0.0000e+00
2.2753e-04 2.6174e-03 0.0000e+00
2.2610e-04 2.6787e-03 0.0000e+00
2.2403e-04 2.7409e-03 0.0000e+00
2.2121e-04 2.8044e-03 0.0000e+00
2.1753e-04 2.8698e-03 0.0000e+00
2.1287e-04 2.9376e-03 0.0000e+00
2.0720e-04 3.0088e-03 0.0000e+00
2.0063e-04 3.0843e-03 0.0000e+00
1.9351e-04 3.1652e-03 0.0000e+00
1.8639e-04 3.2525e-03 0.0000e+00
1.8003e-04 3.3466e-03 0.0000e+00
1.7484e-04 3.4472e-03 0.0000e+00
1.7081e-04 3.5535e-03 0.0000e+00
1.6760e-04 3.6644e-03 0.0000e+00
1.6497e-04 3.7793e-03 0.0000e+00
1.6278e-04 3.8984e-03 0.0000e+00
1.6098e-04 4.0196e-03 0.0000e+00
1.5947e-04 4.1434e-03 0.0000e+00
1.5817e-04 4.2694e-03 0.0000e+00
1.5697e-04 4.3974e-03 0.0000e+00
1.5575e-04 4.5275e-03 0.0000e+00
1.5436e-04 4.6598e-03 0.0000e+00
1.5255e-04 4.7948e-03 0.0000e+00
3.0480e-04 1.3488e-04 0.0000e+00
3.0723e-04 2.6896e-04 0.0000e+00
3.1023e-04 4.0147e-04 0.0000e+00
3.1321e-04 5.3209e-04 0.0000e+00
3.1595e-04 6.6059e-04 0.0000e+00
3.1874e-04 7.8677e-04 0.0000e+00
3.2187e-04 9.1015e-04 0.0000e+00
3.2555e-04 1.0311e-03 0.0000e+00
3.2997e-04 1.1499e-03 0.0000e+00
3.3527e-04 1.2643e-03 0.0000e+00
3.4180e-04 1.3745e-03 0.0000e+00
3.5028e-04 1.4796e-03 0.0000e+00
3.6124e-04 1.5784e-03 0.0000e+00
3.7434e-04 1.6702e-03 0.0000e+00
3.8827e-04 1.7554e-03 0.0000e+00
4.0176e-04 1.8349e-03 0.0000e+00
4.1389e-04 1.9098e-03 0.0000e+00
4.2424e-04 1.9812e-03 0.0000e+00
4.3271e-04 2.0500e-03 0.0000e+00
4.3942e-04 2.1168e-03 0.0000e+00
4.4455e-04 2.1820e-03 0.0000e+00
4.4834e-04 2.2461e-03 0.0000e+00
4.5099e-04 2.3094e-03 0.0000e+00
4.5266e-04 2.3722e-03 0.0000e+00
4.5347e-04 2.4346e-03 0.0000e+00
4.5348e-04 2.4974e-03 0.0000e+00
4.5268e-04 2.5598e-03 0.0000e+00
4.5102e-04 2.6226e-03 0.0000e+00
4.4838e-04 2.6858e-03 0.0000e+00
4.4460e-04 2.7499e-03 0.0000e+00
4.3948e-04 2.8152e-03 0.0000e+00
4.3279e-04 2.8819e-03 0.0000e+00
4.2432e-04 2.9506e-03 0.0000e+00
4.1398e-04 3.0220e-03 0.0000e+00
4.0186e-04 3.0970e-03 0.0000e+00
3.8838e-04 3.1764e-03 0.0000e+00
3.7445e-04 3.2615e-03 0.0000e+00
3.6133e-04 3.3533e-03 0.0000e+00
3.5036e-04 3.4520e-03 0.0000e+00
3.4187e-04 3.5570e-03 0.0000e+00
3.3534e-04 3.6672e-03 0.0000e+00
3.3003e-04 3.7816e-03 0.0000e+00
3.2562e-04 3.9003e-03 0.0000e+00
3.2196e-04 4.0212e-03 0.0000e+00
3.1888e-04 4.1448e-03 0.0000e+00
3.1621e-04 4.2707e-03 0.0000e+00
3.1375e-04 4.3988e-03 0.0000e+00
3.1127e-04 4.5290e-03 0.0000e+00
3.0852e-04 4.6613e-03 0.0000e+00
3.0529e-04 4.7961e-03 0.0000e+00
4.5892e-04 1.3436e-04 0.0000e+00
4.6249e-04 2.6821e-04 0.0000e+00
4.6606e-04 4.0013e-04 0.0000e+00
4.6996e-04 5.3020e-04 0.0000e+00
4.7401e-04 6.5844e-04 0.0000e+00
4.7833e-04 7.8445e-04 0.0000e+00
4.8318e-04 9.0747e-04 0.0000e+00
4.8887e-04 1.0280e-03 0.0000e+00
4.9571e-04 1.1460e-03 0.0000e+00
5.0395e-04 1.2594e-03 0.0000e+00
5.1441e-04 1.3681e-03 0.0000e+00
5.2829e-04 1.4708e-03 0.0000e+00
5.4580e-04 1.5662e-03 0.0000e+00
5.6532e-04 1.6548e-03 0.0000e+00
5.8490e-04 1.7375e-03 0.0000e+00
6.0305e-04 1.8158e-03 0.0000e+00
6.1904e-04 1.8906e-03 0.0000e+00
6.3260e-04 1.9630e-03 0.0000e+00
6.4378e-04 2.0333e-03 0.0000e+00
6.5274e-04 2.1022e-03 0.0000e+00
6.5971e-04 2.1698e-03 0.0000e+00
6.6495e-04 2.2365e-03 0.0000e+00
6.6868e-04 2.3025e-03 0.0000e+00
6.7108e-04 2.3680e-03 0.0000e+00
6.7225e-04 2.4332e-03 0.0000e+00
6.7226e-04 2.4987e-03 0.0000e+00
6.7110e-04 2.5639e-03 0.0000e+00
6.6873e-04 2.6294e-03 0.0000e+00
6.6500e-04 2.6954e-03 0.0000e+00
6.5978e-04 2.7621e-03 0.0000e+00
6.5282e-04 2.8297e-03 0.0000e+00
6.4388e-04 2.8985e-03 0.0000e+00
6.3272e-04 2.9689e-03 0.0000e+00
6.1917e-04 3.0412e-03 0.0000e+00
6.0319e-04 3.1161e-03 0.0000e+00
5.8504e-04 3.1943e-03 0.0000e+00
5.6547e-04 3.2769e-03 0.0000e+00
5.4594e-04 3.3655e-03 0.0000e+00
5.2842e-04 3.4609e-03 0.0000e+00
5.1452e-04 3.5635e-03 0.0000e+00
5.0406e-04 3.6721e-03 0.0000e+00
4.9581e-04 3.7854e-03 0.0000e+00
4.8899e-04 3.9034e-03 0.0000e+00
4.8333e-04 4.0239e-03 0.0000e+00
4.7854e-04 4.1471e-03 0.0000e+00
4.7440e-04 4.2729e-03 0.0000e+00
4.7062e-04 4.4009e-03 0.0000e+00
4.6687e-04 4.5310e-03 0.0000e+00
4.6293e-04 4.6632e-03 0.0000e+00
4.5877e-04 4.7973e-03 0.0000e+00
6.1308e-04 1.3340e-04 0.0000e+00
6.1764e-04 2.6666e-04 0.0000e+00
6.2222e-04 3.9827e-04 0.0000e+00
6.2700e-04 5.2791e-04 0.0000e+00
6.3224e-04 6.5570e-04 0.0000e+00
6.3810e-04 7.8125e-04 0.0000e+00
6.4483e-04 9.0376e-04 0.0000e+00
6.5274e-04 1.0235e-03 0.0000e+00
6.6230e-04 1.1405e-03 0.0000e+00
6.7406e-04 1.2523e-03 0.0000e+00
6.8956e-04 1.3584e-03 0.0000e+00
7.1009e-04 1.4571e-03 0.0000e+00
7.3404e-04 1.5486e-03 0.0000e+00
7.5875e-04 1.6339e-03 0.0000e+00
7.8208e-04 1.7150e-03 0.0000e+00
8.0308e-04 1.7929e-03 0.0000e+00
8.2132e-04 1.8685e-03 0.0000e+00
8.3683e-04 1.9424e-03 0.0000e+00
8.4974e-04 2.0149e-03 0.0000e+00
8.6029e-04 2.0862e-03 0.0000e+00
8.6869e-04 2.1566e-03 0.0000e+00
8.7512e-04 2.2261e-03 0.0000e+00
8.7979e-04 2.2950e-03 0.0000e+00
8.8283e-04 2.3635e-03 0.0000e+00
8.8434e-04 2.4317e-03 0.0000e+00
8.8435e-04 2.5003e-03 0.0000e+00
8.8286e-04 2.5684e-03 0.0000e+00
8.7984e-04 2.6369e-03 0.0000e+00
8.7519e-04 2.7058e-03 0.0000e+00
8.6878e-04 2.7754e-03 0.0000e+00
8.6040e-04 2.8457e-03 0.0000e+00
8.4986e-04 2.9170e-03 0.0000e+00
8.3697e-04 2.9894e-03 0.0000e+00
8.2148e-04 3.0633e-03 0.0000e+00
8.0325e-04 3.1389e-03 0.0000e+00
7.8227e-04 3.2168e-03 0.0000e+00
7.5894e-04 3.2978e-03 0.0000e+00
7.3424e-04 3.3831e-03 0.0000e+00
7.1028e-04 3.4745e-03 0.0000e+00
6.8972e-04 3.5732e-03 0.0000e+00
6.7420e-04 3.6793e-03 0.0000e+00
6.6244e-04 3.7910e-03 0.0000e+00
6.5290e-04 3.9079e-03 0.0000e+00
6.4503e-04 4.0276e-03 0.0000e+00
6.3838e-04 4.1504e-03 0.0000e+00
6.3266e-04 4.2758e-03 0.0000e+00
6.2750e-04 4.4035e-03 0.0000e+00
6.2257e-04 4.5333e-03 0.0000e+00
6.1769e-04 4.6650e-03 0.0000e+00
6.1290e-04 4.7983e-03 0.0000e+00
7.6796e-04 1.3242e-04 0.0000e+00
7.7323e-04 2.6494e-04 0.0000e+00
7.7874e-04 3.9596e-04 0.0000e+00
7.8458e-04 5.2514e-04 0.0000e+00
7.9104e-04 6.5236e-04 0.0000e+00
7.9852e-04 7.7726e-04 0.0000e+00
8.0728e-04 8.9892e-04 0.0000e+00
8.1770e-04 1.0176e-03 0.0000e+00
8.3049e-04 1.1330e-03 0.0000e+00
8.4683e-04 1.2422e-03 0.0000e+00
8.6912e-04 1.3442e-03 0.0000e+00
8.9651e-04 1.4383e-03 0.0000e+00
9.2557e-04 1.5259e-03 0.0000e+00
9.5334e-04 1.6093e-03 0.0000e+00
9.7860e-04 1.6899e-03 0.0000e+00
1.0009e-03 1.7685e-03 0.0000e+00
1.0203e-03 1.8457e-03 0.0000e+00
1.0369e-03 1.9216e-03 0.0000e+00
1.0510e-03 1.9964e-03 0.0000e+00
1.0627e-03 2.0703e-03 0.0000e+00
1.0722e-03 2.1434e-03 0.0000e+00
1.0796e-03 2.2158e-03 0.0000e+00
1.0851e-03 2.2876e-03 0.0000e+00
1.0886e-03 2.3590e-03 0.0000e+00
1.0904e-03 2.4302e-03 0.0000e+00
1.0904e-03 2.5017e-03 0.0000e+00
1.0887e-03 2.5729e-03 0.0000e+00
1.0851e-03 2.6443e-03 0.0000e+00
1.0797e-03 2.7161e-03 0.0000e+00
1.0723e-03 2.7885e-03 0.0000e+00
1.0628e-03 2.8616e-03 0.0000e+00
1.0511e-03 2.9355e-03 0.0000e+00
1.0371e-03 3.0103e-03 0.0000e+00
1.0205e-03 3.0862e-03 0.0000e+00
1.0011e-03 3.1633e-03 0.0000e+00
9.7882e-04 3.2419e-03 0.0000e+00
9.5357e-04 3.3225e-03 0.0000e+00
9.2581e-04 3.4058e-03 0.0000e+00
8.9675e-04 3.4934e-03 0.0000e+00
8.6935e-04 3.5874e-03 0.0000e+00
8.4702e-04 3.6893e-03 0.0000e+00
8.3067e-04 3.7985e-03 0.0000e+00
8.1789e-04 3.9138e-03 0.0000e+00
8.0752e-04 4.0325e-03 0.0000e+00
7.9880e-04 4.1544e-03 0.0000e+00
7.9137e-04 4.2793e-03 0.0000e+00
7.8484e-04 4.4065e-03 0.0000e+00
7.7884e-04 4.5358e-03 0.0000e+00
7.7319e-04 4.6668e-03 0.0000e+00
7.6782e-04 4.7993e-03 0.0000e+00
9.2354e-04 1.3148e-04 0.0000e+00
9.2941e-04 2.6316e-04 0.0000e+00
9.3575e-04 3.9347e-04 0.0000e+00
9.4266e-04 5.2193e-04 0.0000e+00
9.5050e-04 6.4844e-04 0.0000e+00
9.5975e-04 7.7240e-04 0.0000e+00
9.7075e-04 8.9293e-04 0.0000e+00
9.8410e-04 1.0100e-03 0.0000e+00
1.0011e-03 1.1230e-03 0.0000e+00
1.0240e-03 1.2280e-03 0.0000e+00
1.0538e-03 1.3247e-03 0.0000e+00
1.0866e-03 1.4143e-03 0.0000e+00
1.1182e-03 1.4998e-03 0.0000e+00
1.1471e-03 1.5827e-03 0.0000e+00
1.1729e-03 1.6641e-03 0.0000e+00
1.1956e-03 1.7442e-03 0.0000e+00
1.2156e-03 1.8233e-03 0.0000e+00
1.2329e-03 1.9015e-03 0.0000e+00
1.2478e-03 1.9787e-03 0.0000e+00
1.2604e-03 2.0551e-03 0.0000e+00
1.2707e-03 2.1308e-03 0.0000e+00
1.2789e-03 2.2059e-03 0.0000e+00
1.2851e-03 2.2805e-03 0.0000e+00
1.2891e-03 2.3547e-03 0.0000e+00
1.2911e-03 2.4287e-03 0.0000e+00
1.2911e-03 2.5032e-03 0.0000e+00
1.2891e-03 2.5772e-03 0.0000e+00
1.2851e-03 2.6514e-03 0.0000e+00
1.2790e-03 2.7260e-03 0.0000e+00
1.2708e-03 2.8011e-03 0.0000e+00
1.2605e-03 2.8768e-03 0.0000e+00
1.2480e-03 2.9532e-03 0.0000e+00
1.2331e-03 3.0304e-03 0.0000e+00
1.2158e-03 3.1085e-03 0.0000e+00
1.1959e-03 3.1876e-03 0.0000e+00
1.1731e-03 3.2677e-03 0.0000e+00
1.1474e-03 3.3491e-03 0.0000e+00
1.1185e-03 3.4320e-03 0.0000e+00
1.0869e-03 3.5174e-03 0.0000e+00
1.0541e-03 3.6070e-03 0.0000e+00
1.0242e-03 3.7036e-03 0.0000e+00
1.0013e-03 3.8086e-03 0.0000e+00
9.8432e-04 3.9215e-03 0.0000e+00
9.7099e-04 4.0385e-03 0.0000e+00
9.5997e-04 4.1594e-03 0.0000e+00
9.5069e-04 4.2833e-03 0.0000e+00
9.4277e-04 4.4098e-03 0.0000e+00
9.3575e-04 4.5383e-03 0.0000e+00
9.2934e-04 4.6686e-03 0.0000e+00
9.2344e-04 4.8002e-03 0.0000e+00
1.0793e-03 1.3052e-04 0.0000e+00
1.0858e-03 2.6135e-04 0.0000e+00
1.0929e-03 3.9079e-04 0.0000e+00
1.1009e-03 5.1840e-04 0.0000e+00
1.1103e-03 6.4387e-04 0.0000e+00
1.1215e-03 7.6664e-04 0.0000e+00
1.1351e-03 8.8553e-04 0.0000e+00
1.1522e-03 1.0003e-03 0.0000e+00
1.1752e-03 1.1091e-03 0.0000e+00
1.2064e-03 1.2085e-03 0.0000e+00
1.2423e-03 1.2999e-03 0.0000e+00
1.2773e-03 1.3870e-03 0.0000e+00
1.3093e-03 1.4720e-03 0.0000e+00
1.3379e-03 1.5559e-03 0.0000e+00
1.3635e-03 1.6388e-03 0.0000e+00
1.3863e-03 1.7209e-03 0.0000e+00
1.4066e-03 1.8020e-03 0.0000e+00
1.4245e-03 1.8824e-03 0.0000e+00
1.4400e-03 1.9619e-03 0.0000e+00
1.4533e-03 2.0407e-03 0.0000e+00
1.4644e-03 2.1189e-03 0.0000e+00
1.4732e-03 2.1965e-03 0.0000e+00
1.4798e-03 2.2737e-03 0.0000e+00
1.4843e-03 2.3506e-03 0.0000e+00
1.4865e-03 2.4274e-03 0.0000e+00
1.4865e-03 2.5045e-03 0.0000e+00
1.4843e-03 2.5812e-03 0.0000e+00
1.4799e-03 2.6581e-03 0.0000e+00
1.4733e-03 2.7353e-03 0.0000e+00
1.4645e-03 2.8130e-03 0.0000e+00
1.4535e-03 2.8911e-03 0.0000e+00
1.4402e-03 2.9699e-03 0.0000e+00
1.4247e-03 3.0495e-03 0.0000e+00
1.4068e-03 3.1298e-03 0.0000e+00
1.3866e-03 3.2109e-03 0.0000e+00
1.3638e-03 3.2930e-03 0.0000e+00
1.3382e-03 3.3759e-03 0.0000e+00
1.3096e-03 3.4597e-03 0.0000e+00
1.2776e-03 3.5447e-03 0.0000e+00
1.2426e-03 3.6318e-03 0.0000e+00
1.2067e-03 3.7232e-03 0.0000e+00
1.1754e-03 3.8224e-03 0.0000e+00
1.1524e-03 3.9312e-03 0.0000e+00
1.1354e-03 4.0460e-03 0.0000e+00
1.1217e-03 4.1652e-03 0.0000e+00
1.1104e-03 4.2879e-03 0.0000e+00
1.1010e-03 4.4133e-03 0.0000e+00
1.0929e-03 4.5410e-03 0.0000e+00
1.0857e-03 4.6704e-03 0.0000e+00
1.0792e-03 4.8012e-03 0.0000e+00
1.2362e-03 1.2955e-04 0.0000e+00
1.2433e-03 2.5942e-04 0.0000e+00
1.2513e-03 3.8790e-04 0.0000e+00
1.2606e-03 5.1439e-04 0.0000e+00
1.2717e-03 6.3860e-04 0.0000e+00
1.2853e-03 7.5964e-04 0.0000e+00
1.3022e-03 8.7625e-04 0.0000e+00
1.3246e-03 9.8711e-04 0.0000e+00
1.3562e-03 1.0898e-03 0.0000e+00
1.3946e-03 1.1828e-03 0.0000e+00
1.4326e-03 1.2713e-03 0.0000e+00
1.4673e-03 1.3580e-03 0.0000e+00
1.4983e-03 1.4441e-03 0.0000e+00
1.5263e-03 1.5296e-03 0.0000e+00
1.5515e-03 1.6144e-03 0.0000e+00
1.5744e-03 1.6984e-03 0.0000e+00
1.5949e-03 1.7817e-03 0.0000e+00
1.6132e-03 1.8642e-03 0.0000e+00
1.6293e-03 1.9459e-03 0.0000e+00
1.6432e-03 2.0270e-03 0.0000e+00
1.6548e-03 2.1075e-03 0.0000e+00
1.6642e-03 2.1876e-03 0.0000e+00
1.6712e-03 2.2673e-03 0.0000e+00
1.6759e-03 2.3468e-03 0.0000e+00
1.6782e-03 2.4260e-03 0.0000e+00
1.6783e-03 2.5058e-03 0.0000e+00
1.6759e-03 2.5851e-03 0.0000e+00
1.6712e-03 2.6645e-03 0.0000e+00
1.6642e-03 2.7442e-03 0.0000e+00
1.6549e-03 2.8243e-03 0.0000e+00
1.6434e-03 2.9048e-03 0.0000e+00
1.6295e-03 2.9859e-03 0.0000e+00
1.6134e-03 3.0677e-03 0.0000e+00
1.5951e-03 3.1501e-03 0.0000e+00
1.5746e-03 3.2334e-03 0.0000e+00
1.5518e-03 3.3174e-03 0.0000e+00
1.5266e-03 3.4022e-03 0.0000e+00
1.4986e-03 3.4877e-03 0.0000e+00
1.4676e-03 3.5737e-03 0.0000e+00
1.4329e-03 3.6604e-03 0.0000e+00
1.3949e-03 3.7489e-03 0.0000e+00
1.3565e-03 3.8419e-03 0.0000e+00
1.3249e-03 3.9445e-03 0.0000e+00
1.3024e-03 4.0553e-03 0.0000e+00
1.2854e-03 4.1722e-03 0.0000e+00
1.2717e-03 4.2932e-03 0.0000e+00
1.2606e-03 4.4174e-03 0.0000e+00
1.2513e-03 4.5439e-03 0.0000e+00
1.2432e-03 4.6723e-03 0.0000e+00
1.2361e-03 4.8022e-03 0.0000e+00
1.3950e-03 1.2848e-04 0.0000e+00
1.4028e-03 2.5732e-04 0.0000e+00
1.4118e-03 3.8461e-04 0.0000e+00
1.4226e-03 5.0977e-04 0.0000e+00
1.4358e-03 6.3218e-04 0.0000e+00
1.4524e-03 7.5091e-04 0.0000e+00
1.4742e-03 8.6369e-04 0.0000e+00
1.5050e-03 9.6806e-04 0.0000e+00
1.5452e-03 1.0632e-03 0.0000e+00
1.5858e-03 1.1526e-03 0.0000e+00
1.6229e-03 1.2407e-03 0.0000e+00
1.6558e-03 1.3287e-03 0.0000e+00
1.6856e-03 1.4165e-03 0.0000e+00
1.7128e-03 1.5039e-03 0.0000e+00
1.7377e-03 1.5906e-03 0.0000e+00
1.7606e-03 1.6766e-03 0.0000e+00
1.7815e-03 1.7619e-03 0.0000e+00
1.8002e-03 1.8464e-03 0.0000e+00
1.8168e-03 1.9303e-03 0.0000e+00
1.8311e-03 2.0136e-03 0.0000e+00
1.8431e-03 2.0964e-03 0.0000e+00
1.8528e-03 2.1789e-03 0.0000e+00
1.8602e-03 2.2610e-03 0.0000e+00
1.8651e-03 2.3430e-03 0.0000e+00
1.8675e-03 2.4248e-03 0.0000e+00
1.8676e-03 2.5071e-03 0.0000e+00
1.8651e-03 2.5889e-03 0.0000e+00
1.8602e-03 2.6708e-03 0.0000e+00
1.8529e-03 2.7530e-03 0.0000e+00
1.8433e-03 2.8354e-03 0.0000e+00
1.8313e-03 2.9182e-03 0.0000e+00
1.8170e-03 3.0015e-03 0.0000e+00
1.8004e-03 3.0854e-03 0.0000e+00
1.7817e-03 3.1699e-03 0.0000e+00
1.7609e-03 3.2552e-03 0.0000e+00
1.7380e-03 3.3411e-03 0.0000e+00
1.7131e-03 3.4278e-03 0.0000e+00
1.6859e-03 3.5152e-03 0.0000e+00
1.6561e-03 3.6030e-03 0.0000e+00
1.6232e-03 3.6910e-03 0.0000e+00
1.5862e-03 3.7791e-03 0.0000e+00
1.5455e-03 3.8685e-03 0.0000e+00
1.5053e-03 3.9636e-03 0.0000e+00
1.4744e-03 4.0679e-03 0.0000e+00
1.4525e-03 4.1810e-03 0.0000e+00
1.4358e-03 4.2996e-03 0.0000e+00
1.4226e-03 4.4220e-03 0.0000e+00
1.4118e-03 4.5472e-03 0.0000e+00
1.4027e-03 4.6744e-03 0.0000e+00
1.3949e-03 4.8032e-03 0.0000e+00
1.5537e-03 1.2732e-04 0.0000e+00
1.5623e-03 2.5491e-04 0.0000e+00
1.5726e-03 3.8083e-04 0.0000e+00
1.5852e-03 5.0415e-04 0.0000e+00
1.6012e-03 6.2422e-04 0.0000e+00
1.6222e-03 7.3914e-04 0.0000e+00
1.6519e-03 8.4530e-04 0.0000e+00
1.6925e-03 9.4101e-04 0.0000e+00
1.7354e-03 1.0315e-03 0.0000e+00
1.7743e-03 1.1205e-03 0.0000e+00
1.8087e-03 1.2101e-03 0.0000e+00
1.8398e-03 1.3000e-03 0.0000e+00
1.8684e-03 1.3898e-03 0.0000e+00
1.8951e-03 1.4790e-03 0.0000e+00
1.9200e-03 1.5675e-03 0.0000e+00
1.9430e-03 1.6553e-03 0.0000e+00
1.9640e-03 1.7424e-03 0.0000e+00
1.9831e-03 1.8290e-03 0.0000e+00