# vtk DataFile Version 3.0
VTK Example
ASCII
DATASET UNSTRUCTURED_GRID
POINTS 972 float 
0 -2.1999e-06 0.0
0.00276505 -3.49308e-06 0.0
0.0027651 0.00532073 0.0
0 0.00532023 0.0
0.000145066 -2.68422e-06 0.0
0.000301403 -2.70905e-06 0.0
0.000454226 -2.70617e-06 0.0
0.00060744 -2.72591e-06 0.0
0.000761487 -2.74541e-06 0.0
0.000916236 -2.77153e-06 0.0
0.00107115 -2.80213e-06 0.0
0.00122719 -2.84558e-06 0.0
0.00138507 -2.89369e-06 0.0
0.00154273 -2.95125e-06 0.0
0.00170142 -3.01535e-06 0.0
0.0018613 -3.08095e-06 0.0
0.00202282 -3.13027e-06 0.0
0.00218634 -3.16185e-06 0.0
0.0023538 -3.23752e-06 0.0
0.00253304 -3.25975e-06 0.0
0.00278564 6.68661e-05 0.0
0.0027936 0.000154755 0.0
0.00280358 0.000254471 0.0
0.00281559 0.000357915 0.0
0.00282987 0.000463277 0.0
0.00284528 0.000568803 0.0
0.00286153 0.000674032 0.0
0.00287844 0.000779436 0.0
0.00289608 0.000885573 0.0
0.0029141 0.000991062 0.0
0.00293246 0.00109674 0.0
0.00295095 0.00120266 0.0
0.00296936 0.00130886 0.0
0.00298744 0.00141535 0.0
0.00300494 0.00152215 0.0
0.00302164 0.00162924 0.0
0.00303731 0.00173662 0.0
0.00305174 0.00184429 0.0
0.00306478 0.00195222 0.0
0.00307624 0.0020604 0.0
0.003086 0.00216879 0.0
0.00309395 0.00227736 0.0
0.00309999 0.00238608 0.0
0.00310407 0.00249491 0.0
0.00310612 0.0026038 0.0
0.00310613 0.00271345 0.0
0.0031041 0.00282234 0.0
0.00310005 0.00293117 0.0
0.00309402 0.00303989 0.0
0.00308609 0.00314847 0.0
0.00307635 0.00325686 0.0
0.0030649 0.00336504 0.0
0.00305189 0.00347298 0.0
0.00303746 0.00358066 0.0
0.0030218 0.00368805 0.0
0.00300511 0.00379516 0.0
0.0029876 0.00390197 0.0
0.00296952 0.00400847 0.0
0.00295111 0.00411469 0.0
0.00293261 0.00422062 0.0
0.00291423 0.00432632 0.0
0.0028962 0.00443182 0.0
0.00287854 0.00453796 0.0
0.00286161 0.00464337 0.0
0.00284531 0.00474888 0.0
0.00282991 0.00485432 0.0
0.00281563 0.0049596 0.0
0.00280362 0.00506302 0.0
0.00279366 0.00516264 0.0
0.00278569 0.00525048 0.0
0.00253299 0.0053205 0.0
0.00235372 0.00532048 0.0
0.00218625 0.0053204 0.0
0.00202273 0.00532037 0.0
0.00186121 0.00532032 0.0
0.00170133 0.00532025 0.0
0.00154265 0.00532019 0.0
0.00138499 0.00532013 0.0
0.0012271 0.00532008 0.0
0.00107105 0.00532004 0.0
0.000916108 0.00532001 0.0
0.000761307 0.00531998 0.0
0.000607157 0.00531996 0.0
0.000453839 0.00531994 0.0
0.000301285 0.00531994 0.0
0.000149901 0.00531988 0.0
0 0.00518028 0.0
0 0.0050446 0.0
0 0.00491167 0.0
0 0.00478087 0.0
0 0.00465195 0.0
0 0.00452494 0.0
0 0.00440002 0.0
0 0.00427749 0.0
0 0.00415691 0.0
0 0.0040403 0.0
0 0.00392721 0.0
0 0.00381796 0.0
0 0.00371277 0.0
0 0.00361187 0.0
0 0.00351527 0.0
0 0.00342279 0.0
0 0.00333403 0.0
0 0.00324848 0.0
0 0.00316556 0.0
0 0.00308473 0.0
0 0.00300549 0.0
0 0.00292743 0.0
0 0.00285021 0.0
0 0.00277353 0.0
0 0.00269717 0.0
0 0.00262038 0.0
0 0.00254401 0.0
0 0.00246733 0.0
0 0.00239009 0.0
0 0.00231202 0.0
0 0.00223276 0.0
0 0.0021519 0.0
0 0.00206895 0.0
0 0.00198337 0.0
0 0.00189458 0.0
0 0.00180206 0.0
0 0.00170541 0.0
0 0.00160447 0.0
0 0.00149925 0.0
0 0.00138996 0.0
0 0.00127683 0.0
0 0.00116019 0.0
0 0.00103955 0.0
0 0.000916973 0.0
0 0.000792311 0.0
0 0.000665097 0.0
0 0.000535798 0.0
0 0.000404184 0.0
0 0.000268894 0.0
0 0.000126129 0.0
0.000149622 0.000132832 0.0
0.000152515 0.000268844 0.0
0.000154604 0.000403422 0.0
0.000156164 0.000535133 0.0
0.000157453 0.000664531 0.0
0.00015874 0.000791797 0.0
0.000160178 0.000916417 0.0
0.000161867 0.00103895 0.0
0.000163874 0.00115949 0.0
0.000166207 0.00127609 0.0
0.000168903 0.00138918 0.0
0.000171967 0.00149845 0.0
0.000175435 0.00160355 0.0
0.000179237 0.00170427 0.0
0.000183196 0.00180058 0.0
0.000187075 0.00189277 0.0
0.000190656 0.0019813 0.0
0.000193784 0.00206675 0.0
0.000196394 0.0021497 0.0
0.000198488 0.0022307 0.0
0.000200109 0.00231022 0.0
0.00020131 0.00238862 0.0
0.000202146 0.00246625 0.0
0.000202672 0.00254335 0.0
0.000202928 0.00262016 0.0
0.00020293 0.00269739 0.0
0.00020268 0.0027742 0.0
0.000202159 0.00285129 0.0
0.000201328 0.0029289 0.0
0.000200132 0.00300729 0.0
0.000198515 0.00308678 0.0
0.000196425 0.00316776 0.0
0.000193818 0.00325069 0.0
0.000190693 0.0033361 0.0
0.000187113 0.00342459 0.0
0.000183234 0.00351675 0.0
0.000179272 0.00361302 0.0
0.000175468 0.0037137 0.0
0.000171997 0.00381876 0.0
0.000168931 0.00392799 0.0
0.000166235 0.00404105 0.0
0.000163903 0.0041576 0.0
0.0001619 0.0042781 0.0
0.00016022 0.00440057 0.0
0.000158797 0.00452545 0.0
0.000157562 0.00465248 0.0
0.000156423 0.00478146 0.0
0.000155266 0.00491237 0.0
0.000153937 0.00504542 0.0
0.000152219 0.00518111 0.0
0.000304185 0.000134249 0.0
0.00030643 0.000269 0.0
0.000309284 0.000402277 0.0
0.000312131 0.000533756 0.0
0.000314749 0.000663189 0.0
0.000317406 0.000790394 0.0
0.000320354 0.000914876 0.0
0.000323791 0.00103713 0.0
0.00032784 0.00115733 0.0
0.00033253 0.00127348 0.0
0.000337936 0.00138606 0.0
0.000344137 0.00149469 0.0
0.000351188 0.00159907 0.0
0.00035886 0.00169901 0.0
0.000366708 0.00179465 0.0
0.000374245 0.00188638 0.0
0.00038108 0.00197479 0.0
0.000386994 0.00206045 0.0
0.000391911 0.00214389 0.0
0.00039586 0.00222559 0.0
0.000398929 0.00230594 0.0
0.000401226 0.00238526 0.0
0.000402848 0.00246384 0.0
0.000403875 0.0025419 0.0
0.000404376 0.00261967 0.0
0.000404381 0.00269787 0.0
0.000403891 0.00277564 0.0
0.000402874 0.0028537 0.0
0.000401262 0.00293226 0.0
0.000398974 0.00301157 0.0
0.000395914 0.0030919 0.0
0.000391972 0.00317357 0.0
0.000387062 0.00325699 0.0
0.000381152 0.00334262 0.0
0.00037432 0.00343099 0.0
0.000366782 0.00352269 0.0
0.000358932 0.00361829 0.0
0.000351255 0.00371818 0.0
0.000344198 0.00382252 0.0
0.000337994 0.00393111 0.0
0.000332587 0.00404366 0.0
0.0003279 0.00415976 0.0
0.00032386 0.00427991 0.0
0.000320442 0.0044021 0.0
0.000317534 0.00452683 0.0
0.000314999 0.00465377 0.0
0.000312665 0.00478277 0.0
0.00031031 0.00491378 0.0
0.000307682 0.00504692 0.0
0.000304622 0.00518232 0.0
0.000457927 0.000133766 0.0
0.000461264 0.000268289 0.0
0.000464637 0.000400981 0.0
0.000468343 0.000531908 0.0
0.000472213 0.000661091 0.0
0.000476314 0.000788117 0.0
0.000480888 0.000912278 0.0
0.000486192 0.00103409 0.0
0.000492411 0.00115367 0.0
0.000499581 0.00126906 0.0
0.000507851 0.00138069 0.0
0.000517347 0.00148822 0.0
0.000528058 0.00159135 0.0
0.000539438 0.00169011 0.0
0.000550773 0.00178488 0.0
0.000561404 0.00187623 0.0
0.000570905 0.00196475 0.0
0.000579079 0.00205095 0.0
0.000585913 0.00213529 0.0
0.000591464 0.00221811 0.0
0.000595825 0.00229972 0.0
0.000599138 0.00238039 0.0
0.000601519 0.00246034 0.0
0.000603056 0.00253981 0.0
0.000603811 0.00261897 0.0
0.000603819 0.00269857 0.0
0.000603078 0.00277773 0.0
0.000601556 0.00285718 0.0
0.000599188 0.00293713 0.0
0.000595888 0.00301779 0.0
0.00059154 0.00309938 0.0
0.000586 0.00318218 0.0
0.000579176 0.00326649 0.0
0.00057101 0.00335267 0.0
0.000561513 0.00344115 0.0
0.000550885 0.00353246 0.0
0.000539547 0.00362719 0.0
0.000528162 0.00372592 0.0
0.000517443 0.003829 0.0
0.000507941 0.00393649 0.0
0.00049967 0.00404808 0.0
0.000492505 0.00416342 0.0
0.0004863 0.00428294 0.0
0.00048103 0.00440469 0.0
0.000476524 0.00452909 0.0
0.000472597 0.00465587 0.0
0.000468997 0.00478479 0.0
0.000465427 0.00491576 0.0
0.000461683 0.0050487 0.0
0.000457753 0.00518348 0.0
0.000611699 0.000132831 0.0
0.000615986 0.000266789 0.0
0.000620313 0.000399167 0.0
0.000624843 0.000529657 0.0
0.000629829 0.000658391 0.0
0.000635402 0.000784978 0.0
0.000641727 0.000908643 0.0
0.000649064 0.00102975 0.0
0.000657624 0.00114845 0.0
0.000667482 0.00126271 0.0
0.000678828 0.00137301 0.0
0.000691829 0.00147895 0.0
0.000706114 0.00158048 0.0
0.000720767 0.00167796 0.0
0.000734891 0.00177201 0.0
0.000747861 0.00186325 0.0
0.000759345 0.00195223 0.0
0.000769251 0.00203934 0.0
0.000777599 0.00212488 0.0
0.000784489 0.00220913 0.0
0.000790014 0.00229228 0.0
0.000794268 0.00237456 0.0
0.00079737 0.00245616 0.0
0.000799402 0.00253729 0.0
0.000800412 0.00261812 0.0
0.000800421 0.00269941 0.0
0.000799429 0.00278024 0.0
0.000797415 0.00286136 0.0
0.00079433 0.00294295 0.0
0.000790093 0.00302521 0.0
0.000784583 0.00310836 0.0
0.000777707 0.00319258 0.0
0.000769371 0.00327811 0.0
0.000759477 0.00336519 0.0
0.000748001 0.00345414 0.0
0.000735036 0.00354535 0.0
0.000720913 0.00363936 0.0
0.000706255 0.00373679 0.0
0.000691963 0.00383828 0.0
0.000678953 0.00394418 0.0
0.000667605 0.00405443 0.0
0.000657752 0.00416865 0.0
0.000649211 0.00428729 0.0
0.000641921 0.00440833 0.0
0.000635674 0.00453226 0.0
0.000630245 0.00465869 0.0
0.000625341 0.00478737 0.0
0.000620651 0.00491804 0.0
0.000616026 0.0050505 0.0
0.000611508 0.00518452 0.0
0.000766189 0.000131873 0.0
0.000771139 0.000265097 0.0
0.000776344 0.000396899 0.0
0.000781881 0.000526928 0.0
0.000788024 0.000655095 0.0
0.000795107 0.000781039 0.0
0.00080332 0.000903903 0.0
0.000812868 0.00102406 0.0
0.000824021 0.0011415 0.0
0.000836819 0.00125428 0.0
0.000851541 0.00136276 0.0
0.000868098 0.00146679 0.0
0.000885548 0.00156666 0.0
0.000902716 0.00166312 0.0
0.000918795 0.00175686 0.0
0.000933349 0.00184845 0.0
0.000946231 0.00193826 0.0
0.000957429 0.00202655 0.0
0.000966993 0.00211352 0.0
0.000975 0.00219934 0.0
0.000981546 0.00228419 0.0
0.000986684 0.00236822 0.0
0.000990468 0.00245161 0.0
0.000992963 0.00253454 0.0
0.00099421 0.0026172 0.0
0.000994221 0.00270032 0.0
0.000992995 0.00278297 0.0
0.00099052 0.0028659 0.0
0.000986756 0.00294928 0.0
0.000981637 0.0030333 0.0
0.000975109 0.00311814 0.0
0.000967119 0.00320394 0.0
0.00095757 0.00329089 0.0
0.000946385 0.00337916 0.0
0.000933514 0.00346894 0.0
0.000918968 0.0035605 0.0
0.000902894 0.00365421 0.0
0.000885726 0.00375063 0.0
0.000868272 0.00385046 0.0
0.000851705 0.00395444 0.0
0.000836976 0.00406288 0.0
0.000824182 0.00417561 0.0
0.00081305 0.004293 0.0
0.000803548 0.00441311 0.0
0.000795382 0.00453627 0.0
0.000788346 0.00466215 0.0
0.000782137 0.00479032 0.0
0.000776441 0.00492046 0.0
0.000771085 0.00505224 0.0
0.000766038 0.00518548 0.0
0.00092135 0.000130942 0.0
0.000926872 0.000263339 0.0
[...]
POINT_DATA 972
VECTORS Position float
0.0000e+00 -2.1999e-06 0.0000e+00
2.7651e-03 -3.4931e-06 0.0000e+00
2.7651e-03 5.3207e-03 0.0000e+00
0.0000e+00 5.3202e-03 0.0000e+00
1.4507e-04 -2.6842e-06 0.0000e+00
3.0140e-04 -2.7090e-06 0.0000e+00
4.5423e-04 -2.7062e-06 0.0000e+00
6.0744e-04 -2.7259e-06 0.0000e+00
7.6149e-04 -2.7454e-06 0.0000e+00
9.1624e-04 -2.7715e-06 0.0000e+00
1.0711e-03 -2.8021e-06 0.0000e+00
1.2272e-03 -2.8456e-06 0.0000e+00
1.3851e-03 -2.8937e-06 0.0000e+00
1.5427e-03 -2.9513e-06 0.0000e+00
1.7014e-03 -3.0154e-06 0.0000e+00
1.8613e-03 -3.0810e-06 0.0000e+00
2.0228e-03 -3.1303e-06 0.0000e+00
2.1863e-03 -3.1619e-06 0.0000e+00
2.3538e-03 -3.2375e-06 0.0000e+00
2.5330e-03 -3.2597e-06 0.0000e+00
2.7856e-03 6.6866e-05 0.0000e+00
2.7936e-03 1.5475e-04 0.0000e+00
2.8036e-03 2.5447e-04 0.0000e+00
2.8156e-03 3.5791e-04 0.0000e+00
2.8299e-03 4.6328e-04 0.0000e+00
2.8453e-03 5.6880e-04 0.0000e+00
2.8615e-03 6.7403e-04 0.0000e+00
2.8784e-03 7.7944e-04 0.0000e+00
2.8961e-03 8.8557e-04 0.0000e+00
2.9141e-03 9.9106e-04 0.0000e+00
2.9325e-03 1.0967e-03 0.0000e+00
2.9510e-03 1.2027e-03 0.0000e+00
2.9694e-03 1.3089e-03 0.0000e+00
2.9874e-03 1.4154e-03 0.0000e+00
3.0049e-03 1.5221e-03 0.0000e+00
3.0216e-03 1.6292e-03 0.0000e+00
3.0373e-03 1.7366e-03 0.0000e+00
3.0517e-03 1.8443e-03 0.0000e+00
3.0648e-03 1.9522e-03 0.0000e+00
3.0762e-03 2.0604e-03 0.0000e+00
3.0860e-03 2.1688e-03 0.0000e+00
3.0939e-03 2.2774e-03 0.0000e+00
3.1000e-03 2.3861e-03 0.0000e+00
3.1041e-03 2.4949e-03 0.0000e+00
3.1061e-03 2.6038e-03 0.0000e+00
3.1061e-03 2.7135e-03 0.0000e+00
3.1041e-03 2.8223e-03 0.0000e+00
3.1000e-03 2.9312e-03 0.0000e+00
3.0940e-03 3.0399e-03 0.0000e+00
3.0861e-03 3.1485e-03 0.0000e+00
3.0763e-03 3.2569e-03 0.0000e+00
3.0649e-03 3.3650e-03 0.0000e+00
3.0519e-03 3.4730e-03 0.0000e+00
3.0375e-03 3.5807e-03 0.0000e+00
3.0218e-03 3.6881e-03 0.0000e+00
3.0051e-03 3.7952e-03 0.0000e+00
2.9876e-03 3.9020e-03 0.0000e+00
2.9695e-03 4.0085e-03 0.0000e+00
2.9511e-03 4.1147e-03 0.0000e+00
2.9326e-03 4.2206e-03 0.0000e+00
2.9142e-03 4.3263e-03 0.0000e+00
2.8962e-03 4.4318e-03 0.0000e+00
2.8785e-03 4.5380e-03 0.0000e+00
2.8616e-03 4.6434e-03 0.0000e+00
2.8453e-03 4.7489e-03 0.0000e+00
2.8299e-03 4.8543e-03 0.0000e+00
2.8156e-03 4.9596e-03 0.0000e+00
2.8036e-03 5.0630e-03 0.0000e+00
2.7937e-03 5.1626e-03 0.0000e+00
2.7857e-03 5.2505e-03 0.0000e+00
2.5330e-03 5.3205e-03 0.0000e+00
2.3537e-03 5.3205e-03 0.0000e+00
2.1863e-03 5.3204e-03 0.0000e+00
2.0227e-03 5.3204e-03 0.0000e+00
1.8612e-03 5.3203e-03 0.0000e+00
1.7013e-03 5.3203e-03 0.0000e+00
1.5426e-03 5.3202e-03 0.0000e+00
1.3850e-03 5.3201e-03 0.0000e+00
1.2271e-03 5.3201e-03 0.0000e+00
1.0711e-03 5.3200e-03 0.0000e+00
9.1611e-04 5.3200e-03 0.0000e+00
7.6131e-04 5.3200e-03 0.0000e+00
6.0716e-04 5.3200e-03 0.0000e+00
4.5384e-04 5.3199e-03 0.0000e+00
3.0128e-04 5.3199e-03 0.0000e+00
1.4990e-04 5.3199e-03 0.0000e+00
0.0000e+00 5.1803e-03 0.0000e+00
0.0000e+00 5.0446e-03 0.0000e+00
0.0000e+00 4.9117e-03 0.0000e+00
0.0000e+00 4.7809e-03 0.0000e+00
0.0000e+00 4.6519e-03 0.0000e+00
0.0000e+00 4.5249e-03 0.0000e+00
0.0000e+00 4.4000e-03 0.0000e+00
0.0000e+00 4.2775e-03 0.0000e+00
0.0000e+00 4.1569e-03 0.0000e+00
0.0000e+00 4.0403e-03 0.0000e+00
0.0000e+00 3.9272e-03 0.0000e+00
0.0000e+00 3.8180e-03 0.0000e+00
0.0000e+00 3.7128e-03 0.0000e+00
0.0000e+00 3.6119e-03 0.0000e+00
0.0000e+00 3.5153e-03 0.0000e+00
0.0000e+00 3.4228e-03 0.0000e+00
0.0000e+00 3.3340e-03 0.0000e+00
0.0000e+00 3.2485e-03 0.0000e+00
0.0000e+00 3.1656e-03 0.0000e+00
0.0000e+00 3.0847e-03 0.0000e+00
0.0000e+00 3.0055e-03 0.0000e+00
0.0000e+00 2.9274e-03 0.0000e+00
0.0000e+00 2.8502e-03 0.0000e+00
0.0000e+00 2.7735e-03 0.0000e+00
0.0000e+00 2.6972e-03 0.0000e+00
0.0000e+00 2.6204e-03 0.0000e+00
0.0000e+00 2.5440e-03 0.0000e+00
0.0000e+00 2.4673e-03 0.0000e+00
0.0000e+00 2.3901e-03 0.0000e+00
0.0000e+00 2.3120e-03 0.0000e+00
0.0000e+00 2.2328e-03 0.0000e+00
0.0000e+00 2.1519e-03 0.0000e+00
0.0000e+00 2.0690e-03 0.0000e+00
0.0000e+00 1.9834e-03 0.0000e+00
0.0000e+00 1.8946e-03 0.0000e+00
0.0000e+00 1.8021e-03 0.0000e+00
0.0000e+00 1.7054e-03 0.0000e+00
0.0000e+00 1.6045e-03 0.0000e+00
0.0000e+00 1.4993e-03 0.0000e+00
0.0000e+00 1.3900e-03 0.0000e+00
0.0000e+00 1.2768e-03 0.0000e+00
0.0000e+00 1.1602e-03 0.0000e+00
0.0000e+00 1.0396e-03 0.0000e+00
0.0000e+00 9.1697e-04 0.0000e+00
0.0000e+00 7.9231e-04 0.0000e+00
0.0000e+00 6.6510e-04 0.0000e+00
0.0000e+00 5.3580e-04 0.0000e+00
0.0000e+00 4.0418e-04 0.0000e+00
0.0000e+00 2.6889e-04 0.0000e+00
0.0000e+00 1.2613e-04 0.0000e+00
1.4962e-04 1.3283e-04 0.0000e+00
1.5252e-04 2.6884e-04 0.0000e+00
1.5460e-04 4.0342e-04 0.0000e+00
1.5616e-04 5.3513e-04 0.0000e+00
1.5745e-04 6.6453e-04 0.0000e+00
1.5874e-04 7.9180e-04 0.0000e+00
1.6018e-04 9.1642e-04 0.0000e+00
1.6187e-04 1.0389e-03 0.0000e+00
1.6387e-04 1.1595e-03 0.0000e+00
1.6621e-04 1.2761e-03 0.0000e+00
1.6890e-04 1.3892e-03 0.0000e+00
1.7197e-04 1.4985e-03 0.0000e+00
1.7544e-04 1.6035e-03 0.0000e+00
1.7924e-04 1.7043e-03 0.0000e+00
1.8320e-04 1.8006e-03 0.0000e+00
1.8708e-04 1.8928e-03 0.0000e+00
1.9066e-04 1.9813e-03 0.0000e+00
1.9378e-04 2.0667e-03 0.0000e+00
1.9639e-04 2.1497e-03 0.0000e+00
1.9849e-04 2.2307e-03 0.0000e+00
2.0011e-04 2.3102e-03 0.0000e+00
2.0131e-04 2.3886e-03 0.0000e+00
2.0215e-04 2.4662e-03 0.0000e+00
2.0267e-04 2.5434e-03 0.0000e+00
2.0293e-04 2.6202e-03 0.0000e+00
2.0293e-04 2.6974e-03 0.0000e+00
2.0268e-04 2.7742e-03 0.0000e+00
2.0216e-04 2.8513e-03 0.0000e+00
2.0133e-04 2.9289e-03 0.0000e+00
2.0013e-04 3.0073e-03 0.0000e+00
1.9852e-04 3.0868e-03 0.0000e+00
1.9643e-04 3.1678e-03 0.0000e+00
1.9382e-04 3.2507e-03 0.0000e+00
1.9069e-04 3.3361e-03 0.0000e+00
1.8711e-04 3.4246e-03 0.0000e+00
1.8323e-04 3.5167e-03 0.0000e+00
1.7927e-04 3.6130e-03 0.0000e+00
1.7547e-04 3.7137e-03 0.0000e+00
1.7200e-04 3.8188e-03 0.0000e+00
1.6893e-04 3.9280e-03 0.0000e+00
1.6624e-04 4.0410e-03 0.0000e+00
1.6390e-04 4.1576e-03 0.0000e+00
1.6190e-04 4.2781e-03 0.0000e+00
1.6022e-04 4.4006e-03 0.0000e+00
1.5880e-04 4.5254e-03 0.0000e+00
1.5756e-04 4.6525e-03 0.0000e+00
1.5642e-04 4.7815e-03 0.0000e+00
1.5527e-04 4.9124e-03 0.0000e+00
1.5394e-04 5.0454e-03 0.0000e+00
1.5222e-04 5.1811e-03 0.0000e+00
3.0418e-04 1.3425e-04 0.0000e+00
3.0643e-04 2.6900e-04 0.0000e+00
3.0928e-04 4.0228e-04 0.0000e+00
3.1213e-04 5.3376e-04 0.0000e+00
3.1475e-04 6.6319e-04 0.0000e+00
3.1741e-04 7.9039e-04 0.0000e+00
3.2035e-04 9.1488e-04 0.0000e+00
3.2379e-04 1.0371e-03 0.0000e+00
3.2784e-04 1.1573e-03 0.0000e+00
3.3253e-04 1.2735e-03 0.0000e+00
3.3794e-04 1.3861e-03 0.0000e+00
3.4414e-04 1.4947e-03 0.0000e+00
3.5119e-04 1.5991e-03 0.0000e+00
3.5886e-04 1.6990e-03 0.0000e+00
3.6671e-04 1.7946e-03 0.0000e+00
3.7424e-04 1.8864e-03 0.0000e+00
3.8108e-04 1.9748e-03 0.0000e+00
3.8699e-04 2.0605e-03 0.0000e+00
3.9191e-04 2.1439e-03 0.0000e+00
3.9586e-04 2.2256e-03 0.0000e+00
3.9893e-04 2.3059e-03 0.0000e+00
4.0123e-04 2.3853e-03 0.0000e+00
4.0285e-04 2.4638e-03 0.0000e+00
4.0388e-04 2.5419e-03 0.0000e+00
4.0438e-04 2.6197e-03 0.0000e+00
4.0438e-04 2.6979e-03 0.0000e+00
4.0389e-04 2.7756e-03 0.0000e+00
4.0287e-04 2.8537e-03 0.0000e+00
4.0126e-04 2.9323e-03 0.0000e+00
3.9897e-04 3.0116e-03 0.0000e+00
3.9591e-04 3.0919e-03 0.0000e+00
3.9197e-04 3.1736e-03 0.0000e+00
3.8706e-04 3.2570e-03 0.0000e+00
3.8115e-04 3.3426e-03 0.0000e+00
3.7432e-04 3.4310e-03 0.0000e+00
3.6678e-04 3.5227e-03 0.0000e+00
3.5893e-04 3.6183e-03 0.0000e+00
3.5125e-04 3.7182e-03 0.0000e+00
3.4420e-04 3.8225e-03 0.0000e+00
3.3799e-04 3.9311e-03 0.0000e+00
3.3259e-04 4.0437e-03 0.0000e+00
3.2790e-04 4.1598e-03 0.0000e+00
3.2386e-04 4.2799e-03 0.0000e+00
3.2044e-04 4.4021e-03 0.0000e+00
3.1753e-04 4.5268e-03 0.0000e+00
3.1500e-04 4.6538e-03 0.0000e+00
3.1267e-04 4.7828e-03 0.0000e+00
3.1031e-04 4.9138e-03 0.0000e+00
3.0768e-04 5.0469e-03 0.0000e+00
3.0462e-04 5.1823e-03 0.0000e+00
4.5793e-04 1.3377e-04 0.0000e+00
4.6126e-04 2.6829e-04 0.0000e+00
4.6464e-04 4.0098e-04 0.0000e+00
4.6834e-04 5.3191e-04 0.0000e+00
4.7221e-04 6.6109e-04 0.0000e+00
4.7631e-04 7.8812e-04 0.0000e+00
4.8089e-04 9.1228e-04 0.0000e+00
4.8619e-04 1.0341e-03 0.0000e+00
4.9241e-04 1.1537e-03 0.0000e+00
4.9958e-04 1.2691e-03 0.0000e+00
5.0785e-04 1.3807e-03 0.0000e+00
5.1735e-04 1.4882e-03 0.0000e+00
5.2806e-04 1.5913e-03 0.0000e+00
5.3944e-04 1.6901e-03 0.0000e+00
5.5077e-04 1.7849e-03 0.0000e+00
5.6140e-04 1.8762e-03 0.0000e+00
5.7091e-04 1.9647e-03 0.0000e+00
5.7908e-04 2.0510e-03 0.0000e+00
5.8591e-04 2.1353e-03 0.0000e+00
5.9146e-04 2.2181e-03 0.0000e+00
5.9583e-04 2.2997e-03 0.0000e+00
5.9914e-04 2.3804e-03 0.0000e+00
6.0152e-04 2.4603e-03 0.0000e+00
6.0306e-04 2.5398e-03 0.0000e+00
6.0381e-04 2.6190e-03 0.0000e+00
6.0382e-04 2.6986e-03 0.0000e+00
6.0308e-04 2.7777e-03 0.0000e+00
6.0156e-04 2.8572e-03 0.0000e+00
5.9919e-04 2.9371e-03 0.0000e+00
5.9589e-04 3.0178e-03 0.0000e+00
5.9154e-04 3.0994e-03 0.0000e+00
5.8600e-04 3.1822e-03 0.0000e+00
5.7918e-04 3.2665e-03 0.0000e+00
5.7101e-04 3.3527e-03 0.0000e+00
5.6151e-04 3.4411e-03 0.0000e+00
5.5088e-04 3.5325e-03 0.0000e+00
5.3955e-04 3.6272e-03 0.0000e+00
5.2816e-04 3.7259e-03 0.0000e+00
5.1744e-04 3.8290e-03 0.0000e+00
5.0794e-04 3.9365e-03 0.0000e+00
4.9967e-04 4.0481e-03 0.0000e+00
4.9250e-04 4.1634e-03 0.0000e+00
4.8630e-04 4.2829e-03 0.0000e+00
4.8103e-04 4.4047e-03 0.0000e+00
4.7652e-04 4.5291e-03 0.0000e+00
4.7260e-04 4.6559e-03 0.0000e+00
4.6900e-04 4.7848e-03 0.0000e+00
4.6543e-04 4.9158e-03 0.0000e+00
4.6168e-04 5.0487e-03 0.0000e+00
4.5775e-04 5.1835e-03 0.0000e+00
6.1170e-04 1.3283e-04 0.0000e+00
6.1599e-04 2.6679e-04 0.0000e+00
6.2031e-04 3.9917e-04 0.0000e+00
6.2484e-04 5.2966e-04 0.0000e+00
6.2983e-04 6.5839e-04 0.0000e+00
6.3540e-04 7.8498e-04 0.0000e+00
6.4173e-04 9.0864e-04 0.0000e+00
6.4906e-04 1.0298e-03 0.0000e+00
6.5762e-04 1.1484e-03 0.0000e+00
6.6748e-04 1.2627e-03 0.0000e+00
6.7883e-04 1.3730e-03 0.0000e+00
6.9183e-04 1.4789e-03 0.0000e+00
7.0611e-04 1.5805e-03 0.0000e+00
7.2077e-04 1.6780e-03 0.0000e+00
7.3489e-04 1.7720e-03 0.0000e+00
7.4786e-04 1.8633e-03 0.0000e+00
7.5935e-04 1.9522e-03 0.0000e+00
7.6925e-04 2.0393e-03 0.0000e+00
7.7760e-04 2.1249e-03 0.0000e+00
7.8449e-04 2.2091e-03 0.0000e+00
7.9001e-04 2.2923e-03 0.0000e+00
7.9427e-04 2.3746e-03 0.0000e+00
7.9737e-04 2.4562e-03 0.0000e+00
7.9940e-04 2.5373e-03 0.0000e+00
8.0041e-04 2.6181e-03 0.0000e+00
8.0042e-04 2.6994e-03 0.0000e+00
7.9943e-04 2.7802e-03 0.0000e+00
7.9742e-04 2.8614e-03 0.0000e+00
7.9433e-04 2.9430e-03 0.0000e+00
7.9009e-04 3.0252e-03 0.0000e+00
7.8458e-04 3.1084e-03 0.0000e+00
7.7771e-04 3.1926e-03 0.0000e+00
7.6937e-04 3.2781e-03 0.0000e+00
7.5948e-04 3.3652e-03 0.0000e+00
7.4800e-04 3.4541e-03 0.0000e+00
7.3504e-04 3.5453e-03 0.0000e+00
7.2091e-04 3.6394e-03 0.0000e+00
7.0626e-04 3.7368e-03 0.0000e+00
6.9196e-04 3.8383e-03 0.0000e+00
6.7895e-04 3.9442e-03 0.0000e+00
6.6761e-04 4.0544e-03 0.0000e+00
6.5775e-04 4.1686e-03 0.0000e+00
6.4921e-04 4.2873e-03 0.0000e+00
6.4192e-04 4.4083e-03 0.0000e+00
6.3567e-04 4.5323e-03 0.0000e+00
6.3025e-04 4.6587e-03 0.0000e+00
6.2534e-04 4.7874e-03 0.0000e+00
6.2065e-04 4.9180e-03 0.0000e+00
6.1603e-04 5.0505e-03 0.0000e+00
6.1151e-04 5.1845e-03 0.0000e+00
7.6619e-04 1.3187e-04 0.0000e+00
7.7114e-04 2.6510e-04 0.0000e+00
7.7634e-04 3.9690e-04 0.0000e+00
7.8188e-04 5.2693e-04 0.0000e+00
7.8802e-04 6.5510e-04 0.0000e+00
7.9511e-04 7.8104e-04 0.0000e+00
8.0332e-04 9.0390e-04 0.0000e+00
8.1287e-04 1.0241e-03 0.0000e+00
8.2402e-04 1.1415e-03 0.0000e+00
8.3682e-04 1.2543e-03 0.0000e+00
8.5154e-04 1.3628e-03 0.0000e+00
8.6810e-04 1.4668e-03 0.0000e+00
8.8555e-04 1.5667e-03 0.0000e+00
9.0272e-04 1.6631e-03 0.0000e+00
9.1879e-04 1.7569e-03 0.0000e+00
9.3335e-04 1.8485e-03 0.0000e+00
9.4623e-04 1.9383e-03 0.0000e+00
9.5743e-04 2.0266e-03 0.0000e+00
9.6699e-04 2.1135e-03 0.0000e+00
9.7500e-04 2.1993e-03 0.0000e+00
9.8155e-04 2.2842e-03 0.0000e+00
9.8668e-04 2.3682e-03 0.0000e+00
9.9047e-04 2.4516e-03 0.0000e+00
9.9296e-04 2.5345e-03 0.0000e+00
9.9421e-04 2.6172e-03 0.0000e+00
9.9422e-04 2.7003e-03 0.0000e+00
9.9299e-04 2.7830e-03 0.0000e+00
9.9052e-04 2.8659e-03 0.0000e+00
9.8676e-04 2.9493e-03 0.0000e+00
9.8164e-04 3.0333e-03 0.0000e+00
9.7511e-04 3.1181e-03 0.0000e+00
9.6712e-04 3.2039e-03 0.0000e+00
9.5757e-04 3.2909e-03 0.0000e+00
9.4638e-04 3.3792e-03 0.0000e+00
9.3351e-04 3.4689e-03 0.0000e+00
9.1897e-04 3.5605e-03 0.0000e+00
9.0289e-04 3.6542e-03 0.0000e+00
8.8573e-04 3.7506e-03 0.0000e+00
8.6827e-04 3.8505e-03 0.0000e+00
8.5170e-04 3.9544e-03 0.0000e+00
8.3698e-04 4.0629e-03 0.0000e+00
8.2418e-04 4.1756e-03 0.0000e+00
8.1305e-04 4.2930e-03 0.0000e+00
8.0355e-04 4.4131e-03 0.0000e+00
7.9538e-04 4.5363e-03 0.0000e+00
7.8835e-04 4.6622e-03 0.0000e+00
7.8214e-04 4.7903e-03 0.0000e+00
7.7644e-04 4.9205e-03 0.0000e+00
7.7108e-04 5.0522e-03 0.0000e+00
7.6604e-04 5.1855e-03 0.0000e+00
9.2135e-04 1.3094e-04 0.0000e+00
9.2687e-04 2.6334e-04 0.0000e+00
9.3286e-04 3.9443e-04 0.0000e+00
9.3941e-04 5.2376e-04 0.0000e+00
9.4686e-04 6.5121e-04 0.0000e+00
9.5559e-04 7.7624e-04 0.0000e+00
9.6584e-04 8.9803e-04 0.0000e+00
9.7783e-04 1.0168e-03 0.0000e+00
9.9185e-04 1.1327e-03 0.0000e+00
1.0079e-03 1.2434e-03 0.0000e+00
1.0262e-03 1.3497e-03 0.0000e+00
1.0459e-03 1.4518e-03 0.0000e+00
1.0657e-03 1.5504e-03 0.0000e+00
1.0845e-03 1.6464e-03 0.0000e+00
1.1017e-03 1.7404e-03 0.0000e+00
1.1173e-03 1.8327e-03 0.0000e+00
1.1312e-03 1.9237e-03 0.0000e+00
1.1434e-03 2.0133e-03 0.0000e+00
1.1539e-03 2.1018e-03 0.0000e+00
1.1629e-03 2.1892e-03 0.0000e+00
1.1703e-03 2.2758e-03 0.0000e+00
1.1762e-03 2.3616e-03 0.0000e+00
1.1807e-03 2.4469e-03 0.0000e+00
1.1836e-03 2.5317e-03 0.0000e+00
1.1851e-03 2.6162e-03 0.0000e+00
1.1851e-03 2.7013e-03 0.0000e+00
1.1836e-03 2.7858e-03 0.0000e+00
1.1807e-03 2.8706e-03 0.0000e+00
1.1763e-03 2.9558e-03 0.0000e+00
1.1704e-03 3.0417e-03 0.0000e+00
1.1630e-03 3.1282e-03 0.0000e+00
1.1541e-03 3.2157e-03 0.0000e+00
1.1435e-03 3.3041e-03 0.0000e+00
1.1314e-03 3.3938e-03 0.0000e+00
1.1175e-03 3.4847e-03 0.0000e+00
1.1019e-03 3.5770e-03 0.0000e+00
1.0847e-03 3.6710e-03 0.0000e+00
1.0659e-03 3.7669e-03 0.0000e+00
1.0462e-03 3.8655e-03 0.0000e+00
1.0264e-03 3.9675e-03 0.0000e+00
1.0081e-03 4.0737e-03 0.0000e+00
9.9204e-04 4.1845e-03 0.0000e+00
9.7803e-04 4.3003e-03 0.0000e+00
9.6607e-04 4.4190e-03 0.0000e+00
9.5581e-04 4.5412e-03 0.0000e+00
9.4705e-04 4.6662e-03 0.0000e+00
9.3951e-04 4.7936e-03 0.0000e+00
9.3286e-04 4.9230e-03 0.0000e+00
9.2680e-04 5.0540e-03 0.0000e+00
9.2124e-04 5.1864e-03 0.0000e+00
1.0767e-03 1.3000e-04 0.0000e+00
1.0828e-03 2.6154e-04 0.0000e+00
1.0895e-03 3.9177e-04 0.0000e+00
1.0971e-03 5.2024e-04 0.0000e+00
1.1060e-03 6.4668e-04 0.0000e+00
1.1166e-03 7.7054e-04 0.0000e+00
1.1291e-03 8.9086e-04 0.0000e+00
1.1438e-03 1.0079e-03 0.0000e+00
1.1610e-03 1.1216e-03 0.0000e+00
1.1806e-03 1.2299e-03 0.0000e+00
1.2022e-03 1.3339e-03 0.0000e+00
1.2241e-03 1.4344e-03 0.0000e+00
1.2452e-03 1.5324e-03 0.0000e+00
1.2647e-03 1.6286e-03 0.0000e+00
1.2826e-03 1.7233e-03 0.0000e+00
1.2989e-03 1.8167e-03 0.0000e+00
1.3135e-03 1.9089e-03 0.0000e+00
1.3265e-03 2.0000e-03 0.0000e+00
1.3379e-03 2.0900e-03 0.0000e+00
1.3477e-03 2.1791e-03 0.0000e+00
1.3559e-03 2.2674e-03 0.0000e+00
1.3625e-03 2.3550e-03 0.0000e+00
1.3674e-03 2.4421e-03 0.0000e+00
1.3707e-03 2.5288e-03 0.0000e+00
1.3724e-03 2.6153e-03 0.0000e+00
1.3724e-03 2.7022e-03 0.0000e+00
1.3707e-03 2.7887e-03 0.0000e+00
1.3675e-03 2.8754e-03 0.0000e+00
1.3625e-03 2.9625e-03 0.0000e+00
1.3560e-03 3.0501e-03 0.0000e+00
1.3478e-03 3.1383e-03 0.0000e+00
1.3381e-03 3.2274e-03 0.0000e+00
1.3267e-03 3.3174e-03 0.0000e+00
1.3137e-03 3.4085e-03 0.0000e+00
1.2991e-03 3.5007e-03 0.0000e+00
1.2828e-03 3.5941e-03 0.0000e+00
1.2649e-03 3.6888e-03 0.0000e+00
1.2454e-03 3.7850e-03 0.0000e+00
1.2244e-03 3.8829e-03 0.0000e+00
1.2024e-03 3.9834e-03 0.0000e+00
1.1808e-03 4.0873e-03 0.0000e+00
1.1612e-03 4.1956e-03 0.0000e+00
1.1440e-03 4.3092e-03 0.0000e+00
1.1293e-03 4.4263e-03 0.0000e+00
1.1167e-03 4.5469e-03 0.0000e+00
1.1061e-03 4.6707e-03 0.0000e+00
1.0971e-03 4.7971e-03 0.0000e+00
1.0895e-03 4.9256e-03 0.0000e+00
1.0827e-03 5.0558e-03 0.0000e+00
1.0766e-03 5.1873e-03 0.0000e+00
1.2331e-03 1.2902e-04 0.0000e+00
1.2398e-03 2.5962e-04 0.0000e+00
1.2474e-03 3.8889e-04 0.0000e+00
1.2562e-03 5.1625e-04 0.0000e+00
1.2667e-03 6.4141e-04 0.0000e+00
1.2794e-03 7.6366e-04 0.0000e+00
1.2945e-03 8.8208e-04 0.0000e+00
1.3123e-03 9.9675e-04 0.0000e+00
1.3331e-03 1.1077e-03 0.0000e+00
1.3560e-03 1.2133e-03 0.0000e+00
1.3798e-03 1.3154e-03 0.0000e+00
1.4027e-03 1.4151e-03 0.0000e+00
1.4242e-03 1.5133e-03 0.0000e+00
1.4440e-03 1.6103e-03 0.0000e+00
1.4623e-03 1.7060e-03 0.0000e+00
1.4791e-03 1.8007e-03 0.0000e+00
1.4943e-03 1.8942e-03 0.0000e+00
1.5081e-03 1.9867e-03 0.0000e+00
1.5202e-03 2.0782e-03 0.0000e+00
1.5307e-03 2.1690e-03 0.0000e+00
1.5395e-03 2.2589e-03 0.0000e+00
1.5466e-03 2.3483e-03 0.0000e+00
1.5520e-03 2.4373e-03 0.0000e+00
1.5556e-03 2.5259e-03 0.0000e+00
1.5574e-03 2.6143e-03 0.0000e+00
1.5574e-03 2.7032e-03 0.0000e+00
1.5556e-03 2.7916e-03 0.0000e+00
1.5521e-03 2.8802e-03 0.0000e+00
1.5467e-03 2.9691e-03 0.0000e+00
1.5396e-03 3.0585e-03 0.0000e+00
1.5308e-03 3.1485e-03 0.0000e+00
1.5203e-03 3.2392e-03 0.0000e+00
1.5082e-03 3.3307e-03 0.0000e+00
1.4945e-03 3.4232e-03 0.0000e+00
1.4793e-03 3.5167e-03 0.0000e+00
1.4625e-03 3.6113e-03 0.0000e+00
1.4443e-03 3.7071e-03 0.0000e+00
1.4244e-03 3.8040e-03 0.0000e+00
1.4030e-03 3.9022e-03 0.0000e+00
1.3801e-03 4.0019e-03 0.0000e+00
1.3563e-03 4.1039e-03 0.0000e+00
1.3333e-03 4.2095e-03 0.0000e+00
1.3126e-03 4.3204e-03 0.0000e+00
1.2947e-03 4.4351e-03 0.0000e+00
1.2795e-03 4.5538e-03 0.0000e+00
1.2668e-03 4.6760e-03 0.0000e+00
1.2562e-03 4.8011e-03 0.0000e+00
1.2474e-03 4.9285e-03 0.0000e+00
1.2397e-03 5.0577e-03 0.0000e+00
1.2331e-03 5.1883e-03 0.0000e+00
1.3915e-03 1.2795e-04 0.0000e+00
1.3988e-03 2.5752e-04 0.0000e+00
1.4074e-03 3.8561e-04 0.0000e+00
1.4176e-03 5.1162e-04 0.0000e+00
1.4302e-03 6.3505e-04 0.0000e+00
1.4453e-03 7.5522e-04 0.0000e+00
1.4635e-03 8.7099e-04 0.0000e+00
1.4848e-03 9.8257e-04 0.0000e+00
1.5090e-03 1.0903e-03 0.0000e+00
1.5342e-03 1.1936e-03 0.0000e+00
1.5587e-03 1.2948e-03 0.0000e+00
1.5816e-03 1.3948e-03 0.0000e+00
1.6029e-03 1.4937e-03 0.0000e+00
1.6229e-03 1.5917e-03 0.0000e+00
1.6415e-03 1.6886e-03 0.0000e+00
1.6587e-03 1.7845e-03 0.0000e+00
1.6745e-03 1.8793e-03 0.0000e+00
1.6888e-03 1.9733e-03 0.0000e+00
1.7016e-03 2.0663e-03 0.0000e+00
1.7127e-03 2.1587e-03 0.0000e+00
1.7220e-03 2.2504e-03 0.0000e+00
1.7296e-03 2.3416e-03 0.0000e+00
1.7353e-03 2.4324e-03 0.0000e+00
1.7391e-03 2.5229e-03 0.0000e+00
1.7411e-03 2.6133e-03 0.0000e+00
1.7411e-03 2.7042e-03 0.0000e+00
1.7392e-03 2.7945e-03 0.0000e+00
1.7353e-03 2.8850e-03 0.0000e+00
1.7296e-03 2.9758e-03 0.0000e+00
1.7221e-03 3.0670e-03 0.0000e+00
1.7128e-03 3.1587e-03 0.0000e+00
1.7017e-03 3.2511e-03 0.0000e+00
1.6890e-03 3.3442e-03 0.0000e+00
1.6747e-03 3.4381e-03 0.0000e+00
1.6589e-03 3.5329e-03 0.0000e+00
1.6417e-03 3.6288e-03 0.0000e+00
1.6231e-03 3.7257e-03 0.0000e+00
1.6032e-03 3.8236e-03 0.0000e+00
1.5818e-03 3.9225e-03 0.0000e+00
1.5589e-03 4.0225e-03 0.0000e+00
1.5345e-03 4.1237e-03 0.0000e+00
1.5093e-03 4.2270e-03 0.0000e+00
1.4850e-03 4.3346e-03 0.0000e+00
1.4636e-03 4.4462e-03 0.0000e+00
1.4454e-03 4.5623e-03 0.0000e+00
1.4302e-03 4.6824e-03 0.0000e+00
1.4176e-03 4.8058e-03 0.0000e+00
1.4073e-03 4.9318e-03 0.0000e+00
1.3988e-03 5.0598e-03 0.0000e+00
1.3914e-03 5.1894e-03 0.0000e+00
1.5497e-03 1.2678e-04 0.0000e+00
1.5578e-03 2.5512e-04 0.0000e+00
1.5676e-03 3.8182e-04 0.0000e+00
1.5797e-03 5.0602e-04 0.0000e+00
1.5946e-03 6.2723e-04 0.0000e+00
1.6128e-03 7.4447e-04 0.0000e+00
1.6345e-03 8.5677e-04 0.0000e+00
1.6594e-03 9.6459e-04 0.0000e+00
1.6858e-03 1.0695e-03 0.0000e+00
1.7113e-03 1.1718e-03 0.0000e+00
1.7352e-03 1.2733e-03 0.0000e+00
1.7577e-03 1.3740e-03 0.0000e+00
1.7788e-03 1.4740e-03 0.0000e+00
1.7989e-03 1.5730e-03 0.0000e+00
1.8177e-03 1.6711e-03 0.0000e+00
1.8354e-03 1.7682e-03 0.0000e+00
1.8516e-03 1.8644e-03 0.0000e+00
1.8665e-03 1.9598e-03 0.0000e+00