# vtk DataFile Version 3.0
VTK Example
ASCII
DATASET UNSTRUCTURED_GRID
POINTS 972 float 
0 -4.47374e-06 0.0
0.00272262 -5.56658e-06 0.0
0.00272261 0.00569195 0.0
0 0.00569167 0.0
0.000145104 -4.98767e-06 0.0
0.000301143 -5.01233e-06 0.0
0.000453698 -5.01264e-06 0.0
0.00060662 -5.03476e-06 0.0
0.000760358 -5.05637e-06 0.0
0.000914783 -5.08325e-06 0.0
0.00106936 -5.11248e-06 0.0
0.00122504 -5.15147e-06 0.0
0.00138255 -5.18928e-06 0.0
0.00153979 -5.2274e-06 0.0
0.00169801 -5.26112e-06 0.0
0.00185736 -5.29317e-06 0.0
0.00201821 -5.32164e-06 0.0
0.00218082 -5.34467e-06 0.0
0.00234648 -5.39455e-06 0.0
0.00252 -5.42592e-06 0.0
0.00273629 8.4628e-05 0.0
0.002743 0.000187559 0.0
0.00275243 0.00029798 0.0
0.00276296 0.00041015 0.0
0.00277428 0.000523263 0.0
0.00278593 0.000636463 0.0
0.00279788 0.000749299 0.0
0.00281013 0.000862317 0.0
0.00282275 0.000976009 0.0
0.00283551 0.00108884 0.0
0.00284836 0.00120164 0.0
0.0028612 0.00131444 0.0
0.00287387 0.00142727 0.0
0.00288624 0.00154015 0.0
0.00289818 0.00165308 0.0
0.00290953 0.00176608 0.0
0.00292018 0.00187916 0.0
0.00292999 0.00199231 0.0
0.00293885 0.00210553 0.0
0.00294666 0.00221882 0.0
0.00295331 0.00233218 0.0
0.00295874 0.00244559 0.0
0.00296286 0.00255904 0.0
0.00296565 0.00267253 0.0
0.00296706 0.00278604 0.0
0.00296706 0.00290033 0.0
0.00296567 0.00301384 0.0
0.0029629 0.00312733 0.0
0.00295879 0.00324079 0.0
0.00295338 0.0033542 0.0
0.00294674 0.00346756 0.0
0.00293894 0.00358085 0.0
0.00293009 0.00369408 0.0
0.00292029 0.00380724 0.0
0.00290965 0.00392032 0.0
0.0028983 0.00403333 0.0
0.00288636 0.00414628 0.0
0.00287399 0.00425916 0.0
0.00286131 0.00437201 0.0
0.00284847 0.00448482 0.0
0.0028356 0.00459763 0.0
0.00282283 0.00471047 0.0
0.00281019 0.00482417 0.0
0.00279792 0.00493718 0.0
0.00278592 0.00505033 0.0
0.00277427 0.00516344 0.0
0.00276295 0.00527647 0.0
0.00275242 0.00538863 0.0
0.00274299 0.00549896 0.0
0.00273628 0.00560186 0.0
0.00251994 0.00569181 0.0
0.0023464 0.00569178 0.0
0.00218073 0.00569173 0.0
0.00201812 0.00569171 0.0
0.00185727 0.00569168 0.0
0.00169793 0.00569165 0.0
0.0015397 0.00569161 0.0
0.00138246 0.00569158 0.0
0.00122495 0.00569154 0.0
0.00106925 0.0056915 0.0
0.000914649 0.00569147 0.0
0.000760169 0.00569144 0.0
0.000606325 0.00569142 0.0
0.000453291 0.0056914 0.0
0.000300989 0.00569139 0.0
0.000149814 0.00569133 0.0
0 0.00555143 0.0
0 0.00541519 0.0
0 0.00528158 0.0
0 0.00514998 0.0
0 0.00502017 0.0
0 0.00489214 0.0
0 0.00476605 0.0
0 0.00464212 0.0
0 0.00451976 0.0
0 0.00440086 0.0
0 0.00428471 0.0
0 0.00417143 0.0
0 0.00406099 0.0
0 0.00395333 0.0
0 0.00384829 0.0
0 0.00374572 0.0
0 0.00364536 0.0
0 0.00354696 0.0
0 0.00345022 0.0
0 0.00335484 0.0
0 0.00326056 0.0
0 0.00316711 0.0
0 0.00307427 0.0
0 0.00298185 0.0
0 0.00288966 0.0
0 0.00279693 0.0
0 0.00270474 0.0
0 0.00261231 0.0
0 0.00251946 0.0
0 0.002426 0.0
0 0.0023317 0.0
0 0.0022363 0.0
0 0.00213954 0.0
0 0.00204111 0.0
0 0.00194073 0.0
0 0.00183813 0.0
0 0.00173307 0.0
0 0.00162538 0.0
0 0.00151491 0.0
0 0.00140159 0.0
0 0.00128541 0.0
0 0.00116648 0.0
0 0.00104407 0.0
0 0.000920086 0.0
0 0.000794264 0.0
0 0.000666038 0.0
0 0.000535846 0.0
0 0.000403457 0.0
0 0.000267514 0.0
0 0.000124382 0.0
0.000149454 0.000130934 0.0
0.000152184 0.000267496 0.0
0.000154189 0.000402738 0.0
0.000155673 0.000535219 0.0
0.000156883 0.000665488 0.0
0.000158074 0.000793744 0.0
0.000159375 0.000919519 0.0
0.000160851 0.00104344 0.0
0.000162529 0.00116575 0.0
0.000164372 0.00128463 0.0
0.000166358 0.00140073 0.0
0.000168442 0.00151401 0.0
0.00017058 0.00162445 0.0
0.000172714 0.00173212 0.0
0.000174795 0.00183713 0.0
0.000176766 0.00193968 0.0
0.000178571 0.00204004 0.0
0.000180164 0.00213847 0.0
0.000181521 0.00223529 0.0
0.000182641 0.00233078 0.0
0.000183535 0.00242522 0.0
0.000184218 0.00251884 0.0
0.000184705 0.00261186 0.0
0.000185018 0.00270447 0.0
0.000185173 0.00279684 0.0
0.000185174 0.00288976 0.0
0.000185023 0.00298212 0.0
0.000184714 0.00307472 0.0
0.00018423 0.00316773 0.0
0.00018355 0.00326134 0.0
0.000182658 0.00335576 0.0
0.00018154 0.00345123 0.0
0.000180185 0.00354803 0.0
0.000178593 0.00364644 0.0
0.000176789 0.00374677 0.0
0.000174819 0.0038493 0.0
0.000172737 0.00395428 0.0
0.000170603 0.00406192 0.0
0.000168465 0.00417232 0.0
0.000166381 0.00428557 0.0
0.000164397 0.00440164 0.0
0.000162556 0.00452048 0.0
0.000160881 0.00464274 0.0
0.000159414 0.00476661 0.0
0.000158127 0.00489265 0.0
0.000156986 0.00502068 0.0
0.000155927 0.00515053 0.0
0.000154842 0.00528222 0.0
0.00015358 0.00541594 0.0
0.000151943 0.00555218 0.0
0.000303677 0.000132374 0.0
0.000305749 0.000267683 0.0
0.000308451 0.000401626 0.0
0.000311156 0.000533875 0.0
0.000313622 0.000664179 0.0
0.00031608 0.000792382 0.0
0.000318735 0.000918036 0.0
0.000321726 0.00104175 0.0
0.000325098 0.00116382 0.0
0.000328779 0.00128241 0.0
0.000332735 0.00139825 0.0
0.000336881 0.00151126 0.0
0.00034112 0.00162147 0.0
0.00034536 0.00172896 0.0
0.000349484 0.00183387 0.0
0.000353362 0.00193641 0.0
0.000356883 0.00203685 0.0
0.000359978 0.00213548 0.0
0.000362613 0.00223258 0.0
0.000364788 0.00232843 0.0
0.000366527 0.00242326 0.0
0.000367867 0.00251731 0.0
0.000368836 0.00261077 0.0
0.00036946 0.00270381 0.0
0.000369768 0.00279662 0.0
0.000369771 0.00288997 0.0
0.00036947 0.00298278 0.0
0.000368853 0.00307581 0.0
0.00036789 0.00316926 0.0
0.000366556 0.0032633 0.0
0.000364822 0.00335812 0.0
0.000362651 0.00345394 0.0
0.00036002 0.00355102 0.0
0.000356927 0.00364963 0.0
0.000353407 0.00375004 0.0
0.000349531 0.00385256 0.0
0.000345407 0.00395744 0.0
0.000341166 0.00406489 0.0
0.000336927 0.00417508 0.0
0.000332782 0.00428806 0.0
0.000328828 0.00440386 0.0
0.000325152 0.00452241 0.0
0.000321789 0.00464444 0.0
0.000318817 0.00476809 0.0
0.000316201 0.00489399 0.0
0.000313865 0.00502193 0.0
0.000311683 0.00515181 0.0
0.000309466 0.00528358 0.0
0.000306976 0.00541739 0.0
0.000304078 0.00555334 0.0
0.000457115 0.000131926 0.0
0.000460223 0.000267013 0.0
0.000463386 0.000400372 0.0
0.000466882 0.000532066 0.0
0.000470523 0.000662127 0.0
0.000474306 0.000790168 0.0
0.0004784 0.00091556 0.0
0.000482969 0.00103894 0.0
0.000488081 0.00116058 0.0
0.000493617 0.00127873 0.0
0.000499542 0.0013941 0.0
0.00050571 0.00150669 0.0
0.00051199 0.00161652 0.0
0.000518225 0.00172374 0.0
0.000524245 0.00182852 0.0
0.00052986 0.0019311 0.0
0.00053493 0.00203175 0.0
0.000539372 0.00213075 0.0
0.000543174 0.00222835 0.0
0.000546338 0.00232477 0.0
0.000548877 0.00242023 0.0
0.000550845 0.00251493 0.0
0.000552286 0.00260906 0.0
0.000553229 0.00270279 0.0
0.000553695 0.00279627 0.0
0.0005537 0.00289031 0.0
0.000553243 0.00298379 0.0
0.00055231 0.00307751 0.0
0.000550877 0.00317164 0.0
0.000548917 0.00326633 0.0
0.000546386 0.00336177 0.0
0.000543229 0.00345818 0.0
0.000539433 0.00355575 0.0
0.000534995 0.00365473 0.0
0.000529928 0.00375536 0.0
0.000524315 0.00385791 0.0
0.000518295 0.00396266 0.0
0.00051206 0.00406985 0.0
0.000505781 0.00417965 0.0
0.000499614 0.00429221 0.0
0.000493693 0.00440754 0.0
0.000488164 0.00452565 0.0
0.000483068 0.00464724 0.0
0.000478533 0.00477055 0.0
0.000474509 0.00489619 0.0
0.0004709 0.00502398 0.0
0.000467529 0.00515378 0.0
0.000464166 0.00528552 0.0
0.000460628 0.00541913 0.0
0.000456924 0.00555448 0.0
0.000610575 0.000131014 0.0
0.000614586 0.00026555 0.0
0.000618639 0.0003986 0.0
0.000622894 0.000529863 0.0
0.000627562 0.00065948 0.0
0.00063267 0.000787123 0.0
0.000638271 0.00091211 0.0
0.000644503 0.00103497 0.0
0.000651402 0.00115603 0.0
0.000658819 0.00127354 0.0
0.000666685 0.0013883 0.0
0.000674813 0.00150031 0.0
0.000683004 0.0016097 0.0
0.000691057 0.00171662 0.0
0.000698741 0.00182131 0.0
0.000705851 0.00192404 0.0
0.000712243 0.00202505 0.0
0.000717862 0.00212458 0.0
0.000722687 0.00222284 0.0
0.000726745 0.00232003 0.0
0.00073005 0.00241632 0.0
0.000732623 0.00251187 0.0
0.00073452 0.00260686 0.0
0.000735773 0.00270146 0.0
0.0007364 0.00279583 0.0
0.000736406 0.00289075 0.0
0.000735791 0.00298511 0.0
0.00073455 0.00307971 0.0
0.000732664 0.00317469 0.0
0.000730102 0.00327023 0.0
0.000726806 0.00336651 0.0
0.000722757 0.00346368 0.0
0.00071794 0.00356192 0.0
0.000712328 0.00366143 0.0
0.00070594 0.00376242 0.0
0.000698833 0.00386512 0.0
0.00069115 0.00396979 0.0
0.000683098 0.00407668 0.0
0.000674908 0.00418603 0.0
0.000666782 0.00429801 0.0
0.000658922 0.00441273 0.0
0.000651515 0.0045302 0.0
0.000644639 0.00465122 0.0
0.000638455 0.00477401 0.0
0.000632936 0.00489926 0.0
0.000627973 0.00502675 0.0
0.000623385 0.00515632 0.0
0.000618969 0.00528776 0.0
0.000614616 0.00542089 0.0
0.000610373 0.00555549 0.0
0.00076474 0.000130076 0.0
0.000769369 0.000263888 0.0
0.000774242 0.00039637 0.0
0.000779434 0.000527176 0.0
0.000785155 0.000656252 0.0
0.000791576 0.000783313 0.0
0.000798739 0.00090765 0.0
0.000806699 0.00102981 0.0
0.000815442 0.00115009 0.0
0.000824739 0.00126682 0.0
0.0008345 0.00138081 0.0
0.000844457 0.00149218 0.0
0.000854372 0.00160109 0.0
0.00086398 0.00170779 0.0
0.000873046 0.00181252 0.0
0.000881377 0.00191555 0.0
0.000888871 0.00201707 0.0
0.000895487 0.00211729 0.0
0.000901213 0.00221636 0.0
0.000906063 0.00231445 0.0
0.000910069 0.0024117 0.0
0.000913236 0.00250827 0.0
0.000915578 0.00260428 0.0
0.000917128 0.0026999 0.0
0.000917904 0.0027953 0.0
0.000917912 0.00289127 0.0
0.000917149 0.00298666 0.0
0.000915613 0.00308228 0.0
0.000913284 0.00317829 0.0
0.000910129 0.00327484 0.0
0.000906135 0.00337208 0.0
0.000901297 0.00347015 0.0
0.00089558 0.00356921 0.0
0.000888973 0.00366941 0.0
0.000881485 0.00377091 0.0
0.00087316 0.00387392 0.0
0.000864097 0.00397862 0.0
0.00085449 0.00408529 0.0
0.000844577 0.00419417 0.0
0.000834624 0.0043055 0.0
0.000824868 0.00441946 0.0
0.000815583 0.00453615 0.0
0.000806867 0.00465638 0.0
0.000798956 0.0047785 0.0
0.000791845 0.00490314 0.0
0.000785471 0.00503014 0.0
0.000779684 0.00515922 0.0
0.000774333 0.00529014 0.0
0.000769307 0.0054226 0.0
0.000764582 0.00555643 0.0
0.000919561 0.000129162 0.0
0.000924723 0.000262159 0.0
[...]
POINT_DATA 972
VECTORS Position float
0.0000e+00 -4.4737e-06 0.0000e+00
2.7226e-03 -5.5666e-06 0.0000e+00
2.7226e-03 5.6920e-03 0.0000e+00
0.0000e+00 5.6917e-03 0.0000e+00
1.4510e-04 -4.9877e-06 0.0000e+00
3.0114e-04 -5.0123e-06 0.0000e+00
4.5370e-04 -5.0126e-06 0.0000e+00
6.0662e-04 -5.0348e-06 0.0000e+00
7.6036e-04 -5.0564e-06 0.0000e+00
9.1478e-04 -5.0832e-06 0.0000e+00
1.0694e-03 -5.1125e-06 0.0000e+00
1.2250e-03 -5.1515e-06 0.0000e+00
1.3825e-03 -5.1893e-06 0.0000e+00
1.5398e-03 -5.2274e-06 0.0000e+00
1.6980e-03 -5.2611e-06 0.0000e+00
1.8574e-03 -5.2932e-06 0.0000e+00
2.0182e-03 -5.3216e-06 0.0000e+00
2.1808e-03 -5.3447e-06 0.0000e+00
2.3465e-03 -5.3945e-06 0.0000e+00
2.5200e-03 -5.4259e-06 0.0000e+00
2.7363e-03 8.4628e-05 0.0000e+00
2.7430e-03 1.8756e-04 0.0000e+00
2.7524e-03 2.9798e-04 0.0000e+00
2.7630e-03 4.1015e-04 0.0000e+00
2.7743e-03 5.2326e-04 0.0000e+00
2.7859e-03 6.3646e-04 0.0000e+00
2.7979e-03 7.4930e-04 0.0000e+00
2.8101e-03 8.6232e-04 0.0000e+00
2.8228e-03 9.7601e-04 0.0000e+00
2.8355e-03 1.0888e-03 0.0000e+00
2.8484e-03 1.2016e-03 0.0000e+00
2.8612e-03 1.3144e-03 0.0000e+00
2.8739e-03 1.4273e-03 0.0000e+00
2.8862e-03 1.5401e-03 0.0000e+00
2.8982e-03 1.6531e-03 0.0000e+00
2.9095e-03 1.7661e-03 0.0000e+00
2.9202e-03 1.8792e-03 0.0000e+00
2.9300e-03 1.9923e-03 0.0000e+00
2.9389e-03 2.1055e-03 0.0000e+00
2.9467e-03 2.2188e-03 0.0000e+00
2.9533e-03 2.3322e-03 0.0000e+00
2.9587e-03 2.4456e-03 0.0000e+00
2.9629e-03 2.5590e-03 0.0000e+00
2.9656e-03 2.6725e-03 0.0000e+00
2.9671e-03 2.7860e-03 0.0000e+00
2.9671e-03 2.9003e-03 0.0000e+00
2.9657e-03 3.0138e-03 0.0000e+00
2.9629e-03 3.1273e-03 0.0000e+00
2.9588e-03 3.2408e-03 0.0000e+00
2.9534e-03 3.3542e-03 0.0000e+00
2.9467e-03 3.4676e-03 0.0000e+00
2.9389e-03 3.5809e-03 0.0000e+00
2.9301e-03 3.6941e-03 0.0000e+00
2.9203e-03 3.8072e-03 0.0000e+00
2.9096e-03 3.9203e-03 0.0000e+00
2.8983e-03 4.0333e-03 0.0000e+00
2.8864e-03 4.1463e-03 0.0000e+00
2.8740e-03 4.2592e-03 0.0000e+00
2.8613e-03 4.3720e-03 0.0000e+00
2.8485e-03 4.4848e-03 0.0000e+00
2.8356e-03 4.5976e-03 0.0000e+00
2.8228e-03 4.7105e-03 0.0000e+00
2.8102e-03 4.8242e-03 0.0000e+00
2.7979e-03 4.9372e-03 0.0000e+00
2.7859e-03 5.0503e-03 0.0000e+00
2.7743e-03 5.1634e-03 0.0000e+00
2.7629e-03 5.2765e-03 0.0000e+00
2.7524e-03 5.3886e-03 0.0000e+00
2.7430e-03 5.4990e-03 0.0000e+00
2.7363e-03 5.6019e-03 0.0000e+00
2.5199e-03 5.6918e-03 0.0000e+00
2.3464e-03 5.6918e-03 0.0000e+00
2.1807e-03 5.6917e-03 0.0000e+00
2.0181e-03 5.6917e-03 0.0000e+00
1.8573e-03 5.6917e-03 0.0000e+00
1.6979e-03 5.6916e-03 0.0000e+00
1.5397e-03 5.6916e-03 0.0000e+00
1.3825e-03 5.6916e-03 0.0000e+00
1.2250e-03 5.6915e-03 0.0000e+00
1.0693e-03 5.6915e-03 0.0000e+00
9.1465e-04 5.6915e-03 0.0000e+00
7.6017e-04 5.6914e-03 0.0000e+00
6.0633e-04 5.6914e-03 0.0000e+00
4.5329e-04 5.6914e-03 0.0000e+00
3.0099e-04 5.6914e-03 0.0000e+00
1.4981e-04 5.6913e-03 0.0000e+00
0.0000e+00 5.5514e-03 0.0000e+00
0.0000e+00 5.4152e-03 0.0000e+00
0.0000e+00 5.2816e-03 0.0000e+00
0.0000e+00 5.1500e-03 0.0000e+00
0.0000e+00 5.0202e-03 0.0000e+00
0.0000e+00 4.8921e-03 0.0000e+00
0.0000e+00 4.7660e-03 0.0000e+00
0.0000e+00 4.6421e-03 0.0000e+00
0.0000e+00 4.5198e-03 0.0000e+00
0.0000e+00 4.4009e-03 0.0000e+00
0.0000e+00 4.2847e-03 0.0000e+00
0.0000e+00 4.1714e-03 0.0000e+00
0.0000e+00 4.0610e-03 0.0000e+00
0.0000e+00 3.9533e-03 0.0000e+00
0.0000e+00 3.8483e-03 0.0000e+00
0.0000e+00 3.7457e-03 0.0000e+00
0.0000e+00 3.6454e-03 0.0000e+00
0.0000e+00 3.5470e-03 0.0000e+00
0.0000e+00 3.4502e-03 0.0000e+00
0.0000e+00 3.3548e-03 0.0000e+00
0.0000e+00 3.2606e-03 0.0000e+00
0.0000e+00 3.1671e-03 0.0000e+00
0.0000e+00 3.0743e-03 0.0000e+00
0.0000e+00 2.9818e-03 0.0000e+00
0.0000e+00 2.8897e-03 0.0000e+00
0.0000e+00 2.7969e-03 0.0000e+00
0.0000e+00 2.7047e-03 0.0000e+00
0.0000e+00 2.6123e-03 0.0000e+00
0.0000e+00 2.5195e-03 0.0000e+00
0.0000e+00 2.4260e-03 0.0000e+00
0.0000e+00 2.3317e-03 0.0000e+00
0.0000e+00 2.2363e-03 0.0000e+00
0.0000e+00 2.1395e-03 0.0000e+00
0.0000e+00 2.0411e-03 0.0000e+00
0.0000e+00 1.9407e-03 0.0000e+00
0.0000e+00 1.8381e-03 0.0000e+00
0.0000e+00 1.7331e-03 0.0000e+00
0.0000e+00 1.6254e-03 0.0000e+00
0.0000e+00 1.5149e-03 0.0000e+00
0.0000e+00 1.4016e-03 0.0000e+00
0.0000e+00 1.2854e-03 0.0000e+00
0.0000e+00 1.1665e-03 0.0000e+00
0.0000e+00 1.0441e-03 0.0000e+00
0.0000e+00 9.2009e-04 0.0000e+00
0.0000e+00 7.9426e-04 0.0000e+00
0.0000e+00 6.6604e-04 0.0000e+00
0.0000e+00 5.3585e-04 0.0000e+00
0.0000e+00 4.0346e-04 0.0000e+00
0.0000e+00 2.6751e-04 0.0000e+00
0.0000e+00 1.2438e-04 0.0000e+00
1.4945e-04 1.3093e-04 0.0000e+00
1.5218e-04 2.6750e-04 0.0000e+00
1.5419e-04 4.0274e-04 0.0000e+00
1.5567e-04 5.3522e-04 0.0000e+00
1.5688e-04 6.6549e-04 0.0000e+00
1.5807e-04 7.9374e-04 0.0000e+00
1.5938e-04 9.1952e-04 0.0000e+00
1.6085e-04 1.0434e-03 0.0000e+00
1.6253e-04 1.1658e-03 0.0000e+00
1.6437e-04 1.2846e-03 0.0000e+00
1.6636e-04 1.4007e-03 0.0000e+00
1.6844e-04 1.5140e-03 0.0000e+00
1.7058e-04 1.6244e-03 0.0000e+00
1.7271e-04 1.7321e-03 0.0000e+00
1.7480e-04 1.8371e-03 0.0000e+00
1.7677e-04 1.9397e-03 0.0000e+00
1.7857e-04 2.0400e-03 0.0000e+00
1.8016e-04 2.1385e-03 0.0000e+00
1.8152e-04 2.2353e-03 0.0000e+00
1.8264e-04 2.3308e-03 0.0000e+00
1.8354e-04 2.4252e-03 0.0000e+00
1.8422e-04 2.5188e-03 0.0000e+00
1.8471e-04 2.6119e-03 0.0000e+00
1.8502e-04 2.7045e-03 0.0000e+00
1.8517e-04 2.7968e-03 0.0000e+00
1.8517e-04 2.8898e-03 0.0000e+00
1.8502e-04 2.9821e-03 0.0000e+00
1.8471e-04 3.0747e-03 0.0000e+00
1.8423e-04 3.1677e-03 0.0000e+00
1.8355e-04 3.2613e-03 0.0000e+00
1.8266e-04 3.3558e-03 0.0000e+00
1.8154e-04 3.4512e-03 0.0000e+00
1.8018e-04 3.5480e-03 0.0000e+00
1.7859e-04 3.6464e-03 0.0000e+00
1.7679e-04 3.7468e-03 0.0000e+00
1.7482e-04 3.8493e-03 0.0000e+00
1.7274e-04 3.9543e-03 0.0000e+00
1.7060e-04 4.0619e-03 0.0000e+00
1.6846e-04 4.1723e-03 0.0000e+00
1.6638e-04 4.2856e-03 0.0000e+00
1.6440e-04 4.4016e-03 0.0000e+00
1.6256e-04 4.5205e-03 0.0000e+00
1.6088e-04 4.6427e-03 0.0000e+00
1.5941e-04 4.7666e-03 0.0000e+00
1.5813e-04 4.8927e-03 0.0000e+00
1.5699e-04 5.0207e-03 0.0000e+00
1.5593e-04 5.1505e-03 0.0000e+00
1.5484e-04 5.2822e-03 0.0000e+00
1.5358e-04 5.4159e-03 0.0000e+00
1.5194e-04 5.5522e-03 0.0000e+00
3.0368e-04 1.3237e-04 0.0000e+00
3.0575e-04 2.6768e-04 0.0000e+00
3.0845e-04 4.0163e-04 0.0000e+00
3.1116e-04 5.3387e-04 0.0000e+00
3.1362e-04 6.6418e-04 0.0000e+00
3.1608e-04 7.9238e-04 0.0000e+00
3.1874e-04 9.1804e-04 0.0000e+00
3.2173e-04 1.0417e-03 0.0000e+00
3.2510e-04 1.1638e-03 0.0000e+00
3.2878e-04 1.2824e-03 0.0000e+00
3.3273e-04 1.3982e-03 0.0000e+00
3.3688e-04 1.5113e-03 0.0000e+00
3.4112e-04 1.6215e-03 0.0000e+00
3.4536e-04 1.7290e-03 0.0000e+00
3.4948e-04 1.8339e-03 0.0000e+00
3.5336e-04 1.9364e-03 0.0000e+00
3.5688e-04 2.0368e-03 0.0000e+00
3.5998e-04 2.1355e-03 0.0000e+00
3.6261e-04 2.2326e-03 0.0000e+00
3.6479e-04 2.3284e-03 0.0000e+00
3.6653e-04 2.4233e-03 0.0000e+00
3.6787e-04 2.5173e-03 0.0000e+00
3.6884e-04 2.6108e-03 0.0000e+00
3.6946e-04 2.7038e-03 0.0000e+00
3.6977e-04 2.7966e-03 0.0000e+00
3.6977e-04 2.8900e-03 0.0000e+00
3.6947e-04 2.9828e-03 0.0000e+00
3.6885e-04 3.0758e-03 0.0000e+00
3.6789e-04 3.1693e-03 0.0000e+00
3.6656e-04 3.2633e-03 0.0000e+00
3.6482e-04 3.3581e-03 0.0000e+00
3.6265e-04 3.4539e-03 0.0000e+00
3.6002e-04 3.5510e-03 0.0000e+00
3.5693e-04 3.6496e-03 0.0000e+00
3.5341e-04 3.7500e-03 0.0000e+00
3.4953e-04 3.8526e-03 0.0000e+00
3.4541e-04 3.9574e-03 0.0000e+00
3.4117e-04 4.0649e-03 0.0000e+00
3.3693e-04 4.1751e-03 0.0000e+00
3.3278e-04 4.2881e-03 0.0000e+00
3.2883e-04 4.4039e-03 0.0000e+00
3.2515e-04 4.5224e-03 0.0000e+00
3.2179e-04 4.6444e-03 0.0000e+00
3.1882e-04 4.7681e-03 0.0000e+00
3.1620e-04 4.8940e-03 0.0000e+00
3.1387e-04 5.0219e-03 0.0000e+00
3.1168e-04 5.1518e-03 0.0000e+00
3.0947e-04 5.2836e-03 0.0000e+00
3.0698e-04 5.4174e-03 0.0000e+00
3.0408e-04 5.5533e-03 0.0000e+00
4.5712e-04 1.3193e-04 0.0000e+00
4.6022e-04 2.6701e-04 0.0000e+00
4.6339e-04 4.0037e-04 0.0000e+00
4.6688e-04 5.3207e-04 0.0000e+00
4.7052e-04 6.6213e-04 0.0000e+00
4.7431e-04 7.9017e-04 0.0000e+00
4.7840e-04 9.1556e-04 0.0000e+00
4.8297e-04 1.0389e-03 0.0000e+00
4.8808e-04 1.1606e-03 0.0000e+00
4.9362e-04 1.2787e-03 0.0000e+00
4.9954e-04 1.3941e-03 0.0000e+00
5.0571e-04 1.5067e-03 0.0000e+00
5.1199e-04 1.6165e-03 0.0000e+00
5.1822e-04 1.7237e-03 0.0000e+00
5.2425e-04 1.8285e-03 0.0000e+00
5.2986e-04 1.9311e-03 0.0000e+00
5.3493e-04 2.0318e-03 0.0000e+00
5.3937e-04 2.1307e-03 0.0000e+00
5.4317e-04 2.2283e-03 0.0000e+00
5.4634e-04 2.3248e-03 0.0000e+00
5.4888e-04 2.4202e-03 0.0000e+00
5.5084e-04 2.5149e-03 0.0000e+00
5.5229e-04 2.6091e-03 0.0000e+00
5.5323e-04 2.7028e-03 0.0000e+00
5.5370e-04 2.7963e-03 0.0000e+00
5.5370e-04 2.8903e-03 0.0000e+00
5.5324e-04 2.9838e-03 0.0000e+00
5.5231e-04 3.0775e-03 0.0000e+00
5.5088e-04 3.1716e-03 0.0000e+00
5.4892e-04 3.2663e-03 0.0000e+00
5.4639e-04 3.3618e-03 0.0000e+00
5.4323e-04 3.4582e-03 0.0000e+00
5.3943e-04 3.5558e-03 0.0000e+00
5.3500e-04 3.6547e-03 0.0000e+00
5.2993e-04 3.7554e-03 0.0000e+00
5.2431e-04 3.8579e-03 0.0000e+00
5.1829e-04 3.9627e-03 0.0000e+00
5.1206e-04 4.0698e-03 0.0000e+00
5.0578e-04 4.1797e-03 0.0000e+00
4.9961e-04 4.2922e-03 0.0000e+00
4.9369e-04 4.4075e-03 0.0000e+00
4.8816e-04 4.5256e-03 0.0000e+00
4.8307e-04 4.6472e-03 0.0000e+00
4.7853e-04 4.7706e-03 0.0000e+00
4.7451e-04 4.8962e-03 0.0000e+00
4.7090e-04 5.0240e-03 0.0000e+00
4.6753e-04 5.1538e-03 0.0000e+00
4.6417e-04 5.2855e-03 0.0000e+00
4.6063e-04 5.4191e-03 0.0000e+00
4.5692e-04 5.5545e-03 0.0000e+00
6.1058e-04 1.3101e-04 0.0000e+00
6.1459e-04 2.6555e-04 0.0000e+00
6.1864e-04 3.9860e-04 0.0000e+00
6.2289e-04 5.2986e-04 0.0000e+00
6.2756e-04 6.5948e-04 0.0000e+00
6.3267e-04 7.8712e-04 0.0000e+00
6.3827e-04 9.1211e-04 0.0000e+00
6.4450e-04 1.0350e-03 0.0000e+00
6.5140e-04 1.1560e-03 0.0000e+00
6.5882e-04 1.2735e-03 0.0000e+00
6.6668e-04 1.3883e-03 0.0000e+00
6.7481e-04 1.5003e-03 0.0000e+00
6.8300e-04 1.6097e-03 0.0000e+00
6.9106e-04 1.7166e-03 0.0000e+00
6.9874e-04 1.8213e-03 0.0000e+00
7.0585e-04 1.9240e-03 0.0000e+00
7.1224e-04 2.0250e-03 0.0000e+00
7.1786e-04 2.1246e-03 0.0000e+00
7.2269e-04 2.2228e-03 0.0000e+00
7.2675e-04 2.3200e-03 0.0000e+00
7.3005e-04 2.4163e-03 0.0000e+00
7.3262e-04 2.5119e-03 0.0000e+00
7.3452e-04 2.6069e-03 0.0000e+00
7.3577e-04 2.7015e-03 0.0000e+00
7.3640e-04 2.7958e-03 0.0000e+00
7.3641e-04 2.8908e-03 0.0000e+00
7.3579e-04 2.9851e-03 0.0000e+00
7.3455e-04 3.0797e-03 0.0000e+00
7.3266e-04 3.1747e-03 0.0000e+00
7.3010e-04 3.2702e-03 0.0000e+00
7.2681e-04 3.3665e-03 0.0000e+00
7.2276e-04 3.4637e-03 0.0000e+00
7.1794e-04 3.5619e-03 0.0000e+00
7.1233e-04 3.6614e-03 0.0000e+00
7.0594e-04 3.7624e-03 0.0000e+00
6.9883e-04 3.8651e-03 0.0000e+00
6.9115e-04 3.9698e-03 0.0000e+00
6.8310e-04 4.0767e-03 0.0000e+00
6.7491e-04 4.1860e-03 0.0000e+00
6.6678e-04 4.2980e-03 0.0000e+00
6.5892e-04 4.4127e-03 0.0000e+00
6.5152e-04 4.5302e-03 0.0000e+00
6.4464e-04 4.6512e-03 0.0000e+00
6.3846e-04 4.7740e-03 0.0000e+00
6.3294e-04 4.8993e-03 0.0000e+00
6.2797e-04 5.0267e-03 0.0000e+00
6.2338e-04 5.1563e-03 0.0000e+00
6.1897e-04 5.2878e-03 0.0000e+00
6.1462e-04 5.4209e-03 0.0000e+00
6.1037e-04 5.5555e-03 0.0000e+00
7.6474e-04 1.3008e-04 0.0000e+00
7.6937e-04 2.6389e-04 0.0000e+00
7.7424e-04 3.9637e-04 0.0000e+00
7.7943e-04 5.2718e-04 0.0000e+00
7.8516e-04 6.5625e-04 0.0000e+00
7.9158e-04 7.8331e-04 0.0000e+00
7.9874e-04 9.0765e-04 0.0000e+00
8.0670e-04 1.0298e-03 0.0000e+00
8.1544e-04 1.1501e-03 0.0000e+00
8.2474e-04 1.2668e-03 0.0000e+00
8.3450e-04 1.3808e-03 0.0000e+00
8.4446e-04 1.4922e-03 0.0000e+00
8.5437e-04 1.6011e-03 0.0000e+00
8.6398e-04 1.7078e-03 0.0000e+00
8.7305e-04 1.8125e-03 0.0000e+00
8.8138e-04 1.9155e-03 0.0000e+00
8.8887e-04 2.0171e-03 0.0000e+00
8.9549e-04 2.1173e-03 0.0000e+00
9.0121e-04 2.2164e-03 0.0000e+00
9.0606e-04 2.3144e-03 0.0000e+00
9.1007e-04 2.4117e-03 0.0000e+00
9.1324e-04 2.5083e-03 0.0000e+00
9.1558e-04 2.6043e-03 0.0000e+00
9.1713e-04 2.6999e-03 0.0000e+00
9.1790e-04 2.7953e-03 0.0000e+00
9.1791e-04 2.8913e-03 0.0000e+00
9.1715e-04 2.9867e-03 0.0000e+00
9.1561e-04 3.0823e-03 0.0000e+00
9.1328e-04 3.1783e-03 0.0000e+00
9.1013e-04 3.2748e-03 0.0000e+00
9.0613e-04 3.3721e-03 0.0000e+00
9.0130e-04 3.4702e-03 0.0000e+00
8.9558e-04 3.5692e-03 0.0000e+00
8.8897e-04 3.6694e-03 0.0000e+00
8.8148e-04 3.7709e-03 0.0000e+00
8.7316e-04 3.8739e-03 0.0000e+00
8.6410e-04 3.9786e-03 0.0000e+00
8.5449e-04 4.0853e-03 0.0000e+00
8.4458e-04 4.1942e-03 0.0000e+00
8.3462e-04 4.3055e-03 0.0000e+00
8.2487e-04 4.4195e-03 0.0000e+00
8.1558e-04 4.5361e-03 0.0000e+00
8.0687e-04 4.6564e-03 0.0000e+00
7.9896e-04 4.7785e-03 0.0000e+00
7.9184e-04 4.9031e-03 0.0000e+00
7.8547e-04 5.0301e-03 0.0000e+00
7.7968e-04 5.1592e-03 0.0000e+00
7.7433e-04 5.2901e-03 0.0000e+00
7.6931e-04 5.4226e-03 0.0000e+00
7.6458e-04 5.5564e-03 0.0000e+00
9.1956e-04 1.2916e-04 0.0000e+00
9.2472e-04 2.6216e-04 0.0000e+00
9.3032e-04 3.9393e-04 0.0000e+00
9.3645e-04 5.2405e-04 0.0000e+00
9.4334e-04 6.5244e-04 0.0000e+00
9.5113e-04 7.7871e-04 0.0000e+00
9.5990e-04 9.0219e-04 0.0000e+00
9.6964e-04 1.0234e-03 0.0000e+00
9.8024e-04 1.1427e-03 0.0000e+00
9.9139e-04 1.2585e-03 0.0000e+00
1.0029e-03 1.3716e-03 0.0000e+00
1.0145e-03 1.4824e-03 0.0000e+00
1.0258e-03 1.5909e-03 0.0000e+00
1.0367e-03 1.6975e-03 0.0000e+00
1.0468e-03 1.8025e-03 0.0000e+00
1.0561e-03 1.9060e-03 0.0000e+00
1.0645e-03 2.0082e-03 0.0000e+00
1.0720e-03 2.1092e-03 0.0000e+00
1.0785e-03 2.2092e-03 0.0000e+00
1.0841e-03 2.3083e-03 0.0000e+00
1.0887e-03 2.4066e-03 0.0000e+00
1.0924e-03 2.5042e-03 0.0000e+00
1.0952e-03 2.6014e-03 0.0000e+00
1.0970e-03 2.6982e-03 0.0000e+00
1.0979e-03 2.7947e-03 0.0000e+00
1.0979e-03 2.8918e-03 0.0000e+00
1.0970e-03 2.9884e-03 0.0000e+00
1.0952e-03 3.0852e-03 0.0000e+00
1.0925e-03 3.1823e-03 0.0000e+00
1.0888e-03 3.2800e-03 0.0000e+00
1.0842e-03 3.3783e-03 0.0000e+00
1.0786e-03 3.4773e-03 0.0000e+00
1.0721e-03 3.5773e-03 0.0000e+00
1.0646e-03 3.6783e-03 0.0000e+00
1.0563e-03 3.7805e-03 0.0000e+00
1.0470e-03 3.8840e-03 0.0000e+00
1.0368e-03 3.9889e-03 0.0000e+00
1.0260e-03 4.0955e-03 0.0000e+00
1.0146e-03 4.2040e-03 0.0000e+00
1.0031e-03 4.3147e-03 0.0000e+00
9.9154e-04 4.4278e-03 0.0000e+00
9.8040e-04 4.5435e-03 0.0000e+00
9.6983e-04 4.6628e-03 0.0000e+00
9.6012e-04 4.7840e-03 0.0000e+00
9.5135e-04 4.9078e-03 0.0000e+00
9.4352e-04 5.0341e-03 0.0000e+00
9.3655e-04 5.1624e-03 0.0000e+00
9.3031e-04 5.2926e-03 0.0000e+00
9.2464e-04 5.4243e-03 0.0000e+00
9.1944e-04 5.5573e-03 0.0000e+00
1.0745e-03 1.2823e-04 0.0000e+00
1.0802e-03 2.6039e-04 0.0000e+00
1.0865e-03 3.9132e-04 0.0000e+00
1.0936e-03 5.2059e-04 0.0000e+00
1.1017e-03 6.4804e-04 0.0000e+00
1.1110e-03 7.7330e-04 0.0000e+00
1.1215e-03 8.9564e-04 0.0000e+00
1.1330e-03 1.0157e-03 0.0000e+00
1.1454e-03 1.1338e-03 0.0000e+00
1.1583e-03 1.2486e-03 0.0000e+00
1.1713e-03 1.3609e-03 0.0000e+00
1.1842e-03 1.4710e-03 0.0000e+00
1.1966e-03 1.5794e-03 0.0000e+00
1.2084e-03 1.6862e-03 0.0000e+00
1.2193e-03 1.7915e-03 0.0000e+00
1.2294e-03 1.8956e-03 0.0000e+00
1.2385e-03 1.9986e-03 0.0000e+00
1.2467e-03 2.1005e-03 0.0000e+00
1.2539e-03 2.2015e-03 0.0000e+00
1.2601e-03 2.3016e-03 0.0000e+00
1.2653e-03 2.4011e-03 0.0000e+00
1.2695e-03 2.4999e-03 0.0000e+00
1.2726e-03 2.5983e-03 0.0000e+00
1.2747e-03 2.6963e-03 0.0000e+00
1.2758e-03 2.7941e-03 0.0000e+00
1.2758e-03 2.8925e-03 0.0000e+00
1.2748e-03 2.9903e-03 0.0000e+00
1.2727e-03 3.0883e-03 0.0000e+00
1.2695e-03 3.1866e-03 0.0000e+00
1.2654e-03 3.2855e-03 0.0000e+00
1.2602e-03 3.3849e-03 0.0000e+00
1.2540e-03 3.4850e-03 0.0000e+00
1.2468e-03 3.5860e-03 0.0000e+00
1.2387e-03 3.6879e-03 0.0000e+00
1.2295e-03 3.7908e-03 0.0000e+00
1.2195e-03 3.8949e-03 0.0000e+00
1.2085e-03 4.0002e-03 0.0000e+00
1.1968e-03 4.1070e-03 0.0000e+00
1.1843e-03 4.2153e-03 0.0000e+00
1.1715e-03 4.3255e-03 0.0000e+00
1.1584e-03 4.4378e-03 0.0000e+00
1.1456e-03 4.5525e-03 0.0000e+00
1.1332e-03 4.6706e-03 0.0000e+00
1.1216e-03 4.7906e-03 0.0000e+00
1.1112e-03 4.9133e-03 0.0000e+00
1.1018e-03 5.0385e-03 0.0000e+00
1.0936e-03 5.1659e-03 0.0000e+00
1.0865e-03 5.2952e-03 0.0000e+00
1.0801e-03 5.4261e-03 0.0000e+00
1.0744e-03 5.5582e-03 0.0000e+00
1.2306e-03 1.2728e-04 0.0000e+00
1.2369e-03 2.5851e-04 0.0000e+00
1.2440e-03 3.8848e-04 0.0000e+00
1.2521e-03 5.1669e-04 0.0000e+00
1.2616e-03 6.4299e-04 0.0000e+00
1.2725e-03 7.6692e-04 0.0000e+00
1.2846e-03 8.8787e-04 0.0000e+00
1.2979e-03 1.0065e-03 0.0000e+00
1.3120e-03 1.1233e-03 0.0000e+00
1.3263e-03 1.2369e-03 0.0000e+00
1.3405e-03 1.3485e-03 0.0000e+00
1.3543e-03 1.4584e-03 0.0000e+00
1.3674e-03 1.5668e-03 0.0000e+00
1.3798e-03 1.6740e-03 0.0000e+00
1.3914e-03 1.7799e-03 0.0000e+00
1.4021e-03 1.8847e-03 0.0000e+00
1.4119e-03 1.9885e-03 0.0000e+00
1.4207e-03 2.0914e-03 0.0000e+00
1.4285e-03 2.1934e-03 0.0000e+00
1.4352e-03 2.2947e-03 0.0000e+00
1.4409e-03 2.3953e-03 0.0000e+00
1.4455e-03 2.4953e-03 0.0000e+00
1.4490e-03 2.5949e-03 0.0000e+00
1.4513e-03 2.6943e-03 0.0000e+00
1.4525e-03 2.7934e-03 0.0000e+00
1.4525e-03 2.8931e-03 0.0000e+00
1.4513e-03 2.9923e-03 0.0000e+00
1.4490e-03 3.0916e-03 0.0000e+00
1.4456e-03 3.1912e-03 0.0000e+00
1.4410e-03 3.2912e-03 0.0000e+00
1.4353e-03 3.3918e-03 0.0000e+00
1.4286e-03 3.4931e-03 0.0000e+00
1.4208e-03 3.5951e-03 0.0000e+00
1.4120e-03 3.6979e-03 0.0000e+00
1.4023e-03 3.8017e-03 0.0000e+00
1.3916e-03 3.9065e-03 0.0000e+00
1.3800e-03 4.0125e-03 0.0000e+00
1.3676e-03 4.1196e-03 0.0000e+00
1.3545e-03 4.2280e-03 0.0000e+00
1.3407e-03 4.3378e-03 0.0000e+00
1.3265e-03 4.4494e-03 0.0000e+00
1.3122e-03 4.5630e-03 0.0000e+00
1.2981e-03 4.6798e-03 0.0000e+00
1.2848e-03 4.7984e-03 0.0000e+00
1.2725e-03 4.9197e-03 0.0000e+00
1.2616e-03 5.0436e-03 0.0000e+00
1.2521e-03 5.1698e-03 0.0000e+00
1.2439e-03 5.2981e-03 0.0000e+00
1.2368e-03 5.4280e-03 0.0000e+00
1.2305e-03 5.5592e-03 0.0000e+00
1.3886e-03 1.2625e-04 0.0000e+00
1.3955e-03 2.5646e-04 0.0000e+00
1.4035e-03 3.8529e-04 0.0000e+00
1.4129e-03 5.1224e-04 0.0000e+00
1.4239e-03 6.3703e-04 0.0000e+00
1.4365e-03 7.5932e-04 0.0000e+00
1.4504e-03 8.7853e-04 0.0000e+00
1.4653e-03 9.9550e-04 0.0000e+00
1.4808e-03 1.1109e-03 0.0000e+00
1.4961e-03 1.2236e-03 0.0000e+00
1.5110e-03 1.3348e-03 0.0000e+00
1.5253e-03 1.4447e-03 0.0000e+00
1.5388e-03 1.5534e-03 0.0000e+00
1.5517e-03 1.6610e-03 0.0000e+00
1.5637e-03 1.7676e-03 0.0000e+00
1.5749e-03 1.8733e-03 0.0000e+00
1.5852e-03 1.9780e-03 0.0000e+00
1.5946e-03 2.0819e-03 0.0000e+00
1.6029e-03 2.1850e-03 0.0000e+00
1.6101e-03 2.2874e-03 0.0000e+00
1.6162e-03 2.3892e-03 0.0000e+00
1.6211e-03 2.4905e-03 0.0000e+00
1.6249e-03 2.5915e-03 0.0000e+00
1.6274e-03 2.6922e-03 0.0000e+00
1.6287e-03 2.7927e-03 0.0000e+00
1.6287e-03 2.8938e-03 0.0000e+00
1.6274e-03 2.9944e-03 0.0000e+00
1.6249e-03 3.0950e-03 0.0000e+00
1.6212e-03 3.1960e-03 0.0000e+00
1.6163e-03 3.2973e-03 0.0000e+00
1.6102e-03 3.3991e-03 0.0000e+00
1.6030e-03 3.5015e-03 0.0000e+00
1.5947e-03 3.6046e-03 0.0000e+00
1.5854e-03 3.7085e-03 0.0000e+00
1.5751e-03 3.8132e-03 0.0000e+00
1.5639e-03 3.9188e-03 0.0000e+00
1.5518e-03 4.0254e-03 0.0000e+00
1.5390e-03 4.1330e-03 0.0000e+00
1.5254e-03 4.2417e-03 0.0000e+00
1.5112e-03 4.3516e-03 0.0000e+00
1.4963e-03 4.4627e-03 0.0000e+00
1.4810e-03 4.5754e-03 0.0000e+00
1.4655e-03 4.6908e-03 0.0000e+00
1.4505e-03 4.8078e-03 0.0000e+00
1.4365e-03 4.9273e-03 0.0000e+00
1.4239e-03 5.0496e-03 0.0000e+00
1.4128e-03 5.1743e-03 0.0000e+00
1.4034e-03 5.3012e-03 0.0000e+00
1.3954e-03 5.4300e-03 0.0000e+00
1.3885e-03 5.5602e-03 0.0000e+00
1.5464e-03 1.2514e-04 0.0000e+00
1.5540e-03 2.5416e-04 0.0000e+00
1.5631e-03 3.8167e-04 0.0000e+00
1.5740e-03 5.0700e-04 0.0000e+00
1.5867e-03 6.2996e-04 0.0000e+00
1.6012e-03 7.5019e-04 0.0000e+00
1.6167e-03 8.6742e-04 0.0000e+00
1.6329e-03 9.8265e-04 0.0000e+00
1.6492e-03 1.0969e-03 0.0000e+00
1.6649e-03 1.2090e-03 0.0000e+00
1.6800e-03 1.3201e-03 0.0000e+00
1.6945e-03 1.4302e-03 0.0000e+00
1.7083e-03 1.5394e-03 0.0000e+00
1.7215e-03 1.6477e-03 0.0000e+00
1.7339e-03 1.7550e-03 0.0000e+00
1.7455e-03 1.8615e-03 0.0000e+00
1.7562e-03 1.9672e-03 0.0000e+00
1.7660e-03 2.0721e-03 0.0000e+00