# vtk DataFile Version 3.0
VTK Example
ASCII
DATASET UNSTRUCTURED_GRID
POINTS 846 float 
0.000148043 0.000144382 0.0
0.000295695 0.000143939 0.0
0.000443972 0.00014362 0.0
0.000592103 0.000143577 0.0
0.000740309 0.00014354 0.0
0.000888482 0.000143522 0.0
0.00103665 0.000143519 0.0
0.00118478 0.000143556 0.0
0.00133285 0.000143607 0.0
0.00148085 0.000143716 0.0
0.00162874 0.000143812 0.0
0.00177655 0.000143906 0.0
0.00192427 0.000144083 0.0
0.00207189 0.000144162 0.0
0.00221966 0.000143986 0.0
0.00236821 0.00014318 0.0
0.00251876 0.000142758 0.0
0.00266933 0.000143308 0.0
0.00283358 0.000151347 0.0
0.00295691 0.000117503 0.0
0.00313955 0.000117857 0.0
0.000148485 0.000287895 0.0
0.00029622 0.000288198 0.0
0.000444578 0.000288207 0.0
0.000592752 0.000288038 0.0
0.000740951 0.000288002 0.0
0.000889153 0.000287983 0.0
0.00103732 0.000288012 0.0
0.00118544 0.000288089 0.0
0.0013335 0.00028824 0.0
0.00148149 0.000288406 0.0
0.00162939 0.000288674 0.0
0.00177713 0.000288886 0.0
0.00192496 0.000289003 0.0
0.00207319 0.00028887 0.0
0.00222251 0.000287664 0.0
0.0023731 0.000285799 0.0
0.00252339 0.000283539 0.0
0.00267662 0.000280494 0.0
0.00281669 0.000275297 0.0
0.00299013 0.000263835 0.0
0.00315321 0.000249812 0.0
0.000148336 0.000432826 0.0
0.000296719 0.000432717 0.0
0.000444997 0.000432673 0.0
0.000593353 0.000432639 0.0
0.000741588 0.000432573 0.0
0.000889814 0.000432606 0.0
0.00103799 0.000432688 0.0
0.00118611 0.000432833 0.0
0.00133418 0.000433057 0.0
0.00148215 0.000433363 0.0
0.0016301 0.000433631 0.0
0.00177832 0.00043378 0.0
0.00192743 0.000432985 0.0
0.00207833 0.000431476 0.0
0.00223028 0.000429273 0.0
0.00238273 0.000426299 0.0
0.00253746 0.000421567 0.0
0.00269305 0.000414241 0.0
0.0028629 0.00039449 0.0
0.00298817 0.000417745 0.0
0.00315249 0.000391457 0.0
0.00329537 0.000385745 0.0
0.000148502 0.000577065 0.0
0.000297013 0.000577103 0.0
0.000445487 0.000577062 0.0
0.000593864 0.000577073 0.0
0.000742223 0.000577132 0.0
0.00089048 0.000577193 0.0
0.00103872 0.000577359 0.0
0.00118688 0.000577595 0.0
0.00133501 0.000577858 0.0
0.00148335 0.000578048 0.0
0.00163245 0.00057769 0.0
0.00178324 0.000576418 0.0
0.00193555 0.000574387 0.0
0.00208819 0.0005716 0.0
0.00224139 0.000568638 0.0
0.00239542 0.000564551 0.0
0.00255005 0.00055927 0.0
0.0027078 0.000550817 0.0
0.002862 0.000543694 0.0
0.00303389 0.000539095 0.0
0.00314021 0.000533402 0.0
0.0033077 0.000525237 0.0
0.000148688 0.000721111 0.0
0.00029733 0.000721156 0.0
0.000445911 0.000721232 0.0
0.000594437 0.000721322 0.0
0.000742891 0.000721444 0.0
0.000891313 0.000721626 0.0
0.00103968 0.000721797 0.0
0.00118822 0.000721974 0.0
0.00133734 0.000721742 0.0
0.00148792 0.000720677 0.0
0.00164027 0.000718795 0.0
0.00179328 0.000716275 0.0
0.00194633 0.000713432 0.0
0.00209967 0.00071028 0.0
0.00225331 0.000706335 0.0
0.00240706 0.000701781 0.0
0.00256031 0.000696335 0.0
0.00271132 0.000690825 0.0
0.00286612 0.000684003 0.0
0.0030002 0.00068053 0.0
0.00315936 0.000673994 0.0
0.00332177 0.000667951 0.0
0.000148881 0.000864809 0.0
0.000297679 0.000864939 0.0
0.00044643 0.000865088 0.0
0.000595153 0.000865238 0.0
0.0007439 0.000865388 0.0
0.000892755 0.000865493 0.0
0.00104206 0.000865335 0.0
0.00119252 0.000864423 0.0
0.00134467 0.000862756 0.0
0.00149778 0.00086027 0.0
0.00165088 0.000857502 0.0
0.00180399 0.000854634 0.0
0.00195716 0.000851509 0.0
0.00211035 0.00084787 0.0
0.00226336 0.000843866 0.0
0.00241587 0.000839376 0.0
0.00256757 0.000834849 0.0
0.00272 0.000830023 0.0
0.00286987 0.000825383 0.0
0.00304153 0.000819431 0.0
0.0031477 0.000816731 0.0
0.00331558 0.000811471 0.0
0.00346747 0.000809745 0.0
0.000149118 0.00100811 0.0
0.000298189 0.00100828 0.0
0.000447312 0.00100842 0.0
0.000596598 0.00100845 0.0
0.000746268 0.00100826 0.0
0.000896781 0.00100762 0.0
0.00104866 0.00100612 0.0
0.00120163 0.00100386 0.0
0.00135484 0.00100105 0.0
0.00150792 0.000998268 0.0
0.00166092 0.000995336 0.0
0.0018138 0.000992313 0.0
0.00196658 0.000989007 0.0
0.00211905 0.000985519 0.0
0.00227105 0.000981752 0.0
0.00242239 0.000977993 0.0
0.00257308 0.000974083 0.0
0.00272184 0.000970287 0.0
0.00287257 0.000964596 0.0
0.00300569 0.000960193 0.0
0.00316552 0.000959846 0.0
0.00331671 0.000954746 0.0
0.00346638 0.000947813 0.0
0.000149611 0.0011507 0.0
0.000299322 0.00115071 0.0
0.000449408 0.00115049 0.0
0.000600116 0.0011499 0.0
0.000751777 0.0011487 0.0
0.000904529 0.0011467 0.0
0.00105779 0.0011441 0.0
0.00121106 0.00114124 0.0
0.00136413 0.00113842 0.0
0.00151699 0.00113553 0.0
0.00166964 0.00113268 0.0
0.00182208 0.00112965 0.0
0.00197415 0.00112662 0.0
0.0021258 0.00112345 0.0
0.00227689 0.00112032 0.0
0.00242743 0.00111711 0.0
0.00257736 0.00111397 0.0
0.00272768 0.00110988 0.0
0.00287623 0.00110497 0.0
0.00303769 0.00108826 0.0
0.00315493 0.00111714 0.0
0.00331787 0.00110027 0.0
0.00348557 0.00109366 0.0
0.000150691 0.00129166 0.0
0.000301746 0.00129121 0.0
0.000453465 0.00129015 0.0
0.000606039 0.00128852 0.0
0.000759326 0.00128615 0.0
0.000912815 0.00128343 0.0
0.0010662 0.00128059 0.0
0.00121929 0.00127783 0.0
0.00137211 0.00127508 0.0
0.00152461 0.00127243 0.0
0.00167682 0.00126972 0.0
0.00182863 0.0012671 0.0
0.00198005 0.00126442 0.0
0.00213096 0.00126184 0.0
0.00228142 0.00125923 0.0
0.00243135 0.0012567 0.0
0.00258083 0.00125412 0.0
0.0027298 0.0012516 0.0
0.00288108 0.00124632 0.0
0.00303003 0.00124197 0.0
0.0031881 0.00122984 0.0
0.00330539 0.00125809 0.0
0.00346399 0.00124311 0.0
0.00359346 0.00121449 0.0
0.000152492 0.00142985 0.0
0.000305399 0.0014287 0.0
0.000458802 0.00142681 0.0
0.000612596 0.00142432 0.0
0.000766412 0.00142163 0.0
0.00092 0.00141888 0.0
0.0010732 0.00141629 0.0
0.00122607 0.00141378 0.0
0.00137854 0.00141141 0.0
0.00153066 0.00140907 0.0
0.00168235 0.00140684 0.0
0.00183364 0.00140463 0.0
0.00198447 0.00140255 0.0
0.0021349 0.00140046 0.0
0.00228485 0.00139848 0.0
0.00243441 0.00139647 0.0
0.00258352 0.00139453 0.0
0.00273225 0.00139254 0.0
0.00288054 0.00139059 0.0
0.0030321 0.00138498 0.0
0.0031805 0.00138296 0.0
0.00333914 0.00137073 0.0
0.00347131 0.00139513 0.0
0.00360917 0.00135111 0.0
0.000154552 0.00156447 0.0
0.000309216 0.001563 0.0
0.000463829 0.00156078 0.0
0.00061815 0.00155833 0.0
0.000772081 0.00155585 0.0
0.00092554 0.00155357 0.0
0.00107857 0.00155139 0.0
0.00123115 0.0015494 0.0
0.00138332 0.00154748 0.0
0.00153504 0.0015457 0.0
0.00168636 0.00154397 0.0
0.00183722 0.00154237 0.0
0.00198769 0.0015408 0.0
0.00213773 0.00153933 0.0
0.0022874 0.00153786 0.0
0.00243666 0.00153645 0.0
0.00258558 0.00153502 0.0
0.00273409 0.00153363 0.0
0.00288225 0.00153219 0.0
0.00303002 0.00153077 0.0
0.00318018 0.00152661 0.0
0.00332737 0.00152716 0.0
0.00347384 0.00152607 0.0
0.00362047 0.00152016 0.0
0.00015617 0.001696 0.0
0.00031207 0.00169472 0.0
0.000467341 0.00169303 0.0
0.000621929 0.00169116 0.0
0.000775846 0.00168939 0.0
0.000929214 0.00168771 0.0
0.00108206 0.0016862 0.0
0.00123445 0.00168478 0.0
0.00138637 0.0016835 0.0
0.00153786 0.00168229 0.0
0.0016889 0.00168121 0.0
0.00183954 0.00168016 0.0
0.00198975 0.0016792 0.0
0.00213961 0.00167826 0.0
0.00228907 0.00167738 0.0
0.0024382 0.00167648 0.0
0.00258695 0.00167562 0.0
0.00273538 0.00167474 0.0
0.00288343 0.00167387 0.0
0.00303115 0.00167296 0.0
0.00317849 0.00167206 0.0
0.00332675 0.00167024 0.0
0.00347459 0.00167132 0.0
0.00362714 0.00166774 0.0
0.000156883 0.00182558 0.0
0.000313281 0.00182505 0.0
0.000468858 0.00182428 0.0
0.000623554 0.00182341 0.0
0.00077751 0.00182248 0.0
0.000930814 0.00182162 0.0
0.0010836 0.0018208 0.0
0.00123588 0.00182009 0.0
0.00138772 0.00181945 0.0
0.00153909 0.00181892 0.0
0.00169006 0.00181843 0.0
0.00184059 0.00181802 0.0
0.00199075 0.00181761 0.0
0.00214051 0.00181726 0.0
0.00228994 0.0018169 0.0
0.00243899 0.00181657 0.0
0.00258772 0.00181622 0.0
0.00273609 0.00181589 0.0
0.00288413 0.00181553 0.0
0.0030318 0.00181518 0.0
0.00317914 0.0018148 0.0
0.0033265 0.00181442 0.0
0.00347563 0.00181402 0.0
0.00363024 0.00181449 0.0
0.000156537 0.0019549 0.0
0.000312745 0.0019551 0.0
0.00046825 0.00195535 0.0
0.000622987 0.00195548 0.0
0.000776971 0.00195551 0.0
0.000930336 0.00195545 0.0
0.00108313 0.00195539 0.0
0.00123547 0.00195536 0.0
0.00138734 0.0019554 0.0
0.0015388 0.00195549 0.0
0.00168981 0.00195565 0.0
0.00184044 0.00195582 0.0
0.00199065 0.00195603 0.0
0.0021405 0.00195622 0.0
0.00228996 0.00195643 0.0
0.00243908 0.00195661 0.0
0.00258783 0.00195682 0.0
0.00273625 0.001957 0.0
0.0028843 0.0019572 0.0
0.00303201 0.00195737 0.0
0.00317935 0.00195754 0.0
0.00332665 0.00195769 0.0
0.00347797 0.00196053 0.0
0.00363017 0.00196068 0.0
0.000155323 0.00208546 0.0
0.000310629 0.00208606 0.0
0.00046571 0.00208695 0.0
0.000620322 0.00208789 0.0
0.000774367 0.00208873 0.0
0.00092781 0.00208944 0.0
0.00108075 0.00209007 0.0
0.00123321 0.00209069 0.0
0.00138527 0.00209134 0.0
0.0015369 0.00209204 0.0
0.00168817 0.00209278 0.0
0.001839 0.00209356 0.0
0.00198947 0.00209432 0.0
0.0021395 0.0020951 0.0
0.00228916 0.00209585 0.0
0.00243842 0.00209661 0.0
0.00258732 0.00209734 0.0
0.00273582 0.00209808 0.0
0.00288397 0.0020988 0.0
0.00303173 0.00209953 0.0
0.00317913 0.00210024 0.0
0.00332898 0.00210365 0.0
0.00347807 0.00210704 0.0
0.00363692 0.00211776 0.0
0.000153647 0.00221848 0.0
0.000307524 0.00221894 0.0
0.000461667 0.00221985 0.0
0.000615903 0.00222112 0.0
0.000769888 0.00222248 0.0
0.000923461 0.00222381 0.0
0.00107654 0.00222502 0.0
0.00122922 0.00222619 0.0
0.00138149 0.00222736 0.0
0.00153344 0.00222857 0.0
0.00168502 0.00222983 0.0
0.00183627 0.00223114 0.0
0.00198709 0.00223247 0.0
0.00213751 0.00223381 0.0
0.00228746 0.00223515 0.0
0.00243701 0.00223645 0.0
0.00258611 0.00223776 0.0
0.00273482 0.00223904 0.0
0.00288311 0.00224035 0.0
0.003031 0.00224162 0.0
0.00317939 0.00224382 0.0
0.00332616 0.00224686 0.0
0.00348698 0.0022616 0.0
0.00360054 0.00223163 0.0
0.000152024 0.0023544 0.0
0.000304344 0.00235446 0.0
0.00045707 0.0023549 0.0
0.00061031 0.00235578 0.0
0.000763931 0.00235716 0.0
0.00091749 0.00235878 0.0
[...]
POINT_DATA 846
VECTORS Position float
1.4804e-04 1.4438e-04 0.0000e+00
2.9570e-04 1.4394e-04 0.0000e+00
4.4397e-04 1.4362e-04 0.0000e+00
5.9210e-04 1.4358e-04 0.0000e+00
7.4031e-04 1.4354e-04 0.0000e+00
8.8848e-04 1.4352e-04 0.0000e+00
1.0366e-03 1.4352e-04 0.0000e+00
1.1848e-03 1.4356e-04 0.0000e+00
1.3328e-03 1.4361e-04 0.0000e+00
1.4809e-03 1.4372e-04 0.0000e+00
1.6287e-03 1.4381e-04 0.0000e+00
1.7765e-03 1.4391e-04 0.0000e+00
1.9243e-03 1.4408e-04 0.0000e+00
2.0719e-03 1.4416e-04 0.0000e+00
2.2197e-03 1.4399e-04 0.0000e+00
2.3682e-03 1.4318e-04 0.0000e+00
2.5188e-03 1.4276e-04 0.0000e+00
2.6693e-03 1.4331e-04 0.0000e+00
2.8336e-03 1.5135e-04 0.0000e+00
2.9569e-03 1.1750e-04 0.0000e+00
3.1396e-03 1.1786e-04 0.0000e+00
1.4849e-04 2.8790e-04 0.0000e+00
2.9622e-04 2.8820e-04 0.0000e+00
4.4458e-04 2.8821e-04 0.0000e+00
5.9275e-04 2.8804e-04 0.0000e+00
7.4095e-04 2.8800e-04 0.0000e+00
8.8915e-04 2.8798e-04 0.0000e+00
1.0373e-03 2.8801e-04 0.0000e+00
1.1854e-03 2.8809e-04 0.0000e+00
1.3335e-03 2.8824e-04 0.0000e+00
1.4815e-03 2.8841e-04 0.0000e+00
1.6294e-03 2.8867e-04 0.0000e+00
1.7771e-03 2.8889e-04 0.0000e+00
1.9250e-03 2.8900e-04 0.0000e+00
2.0732e-03 2.8887e-04 0.0000e+00
2.2225e-03 2.8766e-04 0.0000e+00
2.3731e-03 2.8580e-04 0.0000e+00
2.5234e-03 2.8354e-04 0.0000e+00
2.6766e-03 2.8049e-04 0.0000e+00
2.8167e-03 2.7530e-04 0.0000e+00
2.9901e-03 2.6384e-04 0.0000e+00
3.1532e-03 2.4981e-04 0.0000e+00
1.4834e-04 4.3283e-04 0.0000e+00
2.9672e-04 4.3272e-04 0.0000e+00
4.4500e-04 4.3267e-04 0.0000e+00
5.9335e-04 4.3264e-04 0.0000e+00
7.4159e-04 4.3257e-04 0.0000e+00
8.8981e-04 4.3261e-04 0.0000e+00
1.0380e-03 4.3269e-04 0.0000e+00
1.1861e-03 4.3283e-04 0.0000e+00
1.3342e-03 4.3306e-04 0.0000e+00
1.4821e-03 4.3336e-04 0.0000e+00
1.6301e-03 4.3363e-04 0.0000e+00
1.7783e-03 4.3378e-04 0.0000e+00
1.9274e-03 4.3299e-04 0.0000e+00
2.0783e-03 4.3148e-04 0.0000e+00
2.2303e-03 4.2927e-04 0.0000e+00
2.3827e-03 4.2630e-04 0.0000e+00
2.5375e-03 4.2157e-04 0.0000e+00
2.6930e-03 4.1424e-04 0.0000e+00
2.8629e-03 3.9449e-04 0.0000e+00
2.9882e-03 4.1774e-04 0.0000e+00
3.1525e-03 3.9146e-04 0.0000e+00
3.2954e-03 3.8575e-04 0.0000e+00
1.4850e-04 5.7706e-04 0.0000e+00
2.9701e-04 5.7710e-04 0.0000e+00
4.4549e-04 5.7706e-04 0.0000e+00
5.9386e-04 5.7707e-04 0.0000e+00
7.4222e-04 5.7713e-04 0.0000e+00
8.9048e-04 5.7719e-04 0.0000e+00
1.0387e-03 5.7736e-04 0.0000e+00
1.1869e-03 5.7760e-04 0.0000e+00
1.3350e-03 5.7786e-04 0.0000e+00
1.4833e-03 5.7805e-04 0.0000e+00
1.6325e-03 5.7769e-04 0.0000e+00
1.7832e-03 5.7642e-04 0.0000e+00
1.9355e-03 5.7439e-04 0.0000e+00
2.0882e-03 5.7160e-04 0.0000e+00
2.2414e-03 5.6864e-04 0.0000e+00
2.3954e-03 5.6455e-04 0.0000e+00
2.5501e-03 5.5927e-04 0.0000e+00
2.7078e-03 5.5082e-04 0.0000e+00
2.8620e-03 5.4369e-04 0.0000e+00
3.0339e-03 5.3909e-04 0.0000e+00
3.1402e-03 5.3340e-04 0.0000e+00
3.3077e-03 5.2524e-04 0.0000e+00
1.4869e-04 7.2111e-04 0.0000e+00
2.9733e-04 7.2116e-04 0.0000e+00
4.4591e-04 7.2123e-04 0.0000e+00
5.9444e-04 7.2132e-04 0.0000e+00
7.4289e-04 7.2144e-04 0.0000e+00
8.9131e-04 7.2163e-04 0.0000e+00
1.0397e-03 7.2180e-04 0.0000e+00
1.1882e-03 7.2197e-04 0.0000e+00
1.3373e-03 7.2174e-04 0.0000e+00
1.4879e-03 7.2068e-04 0.0000e+00
1.6403e-03 7.1879e-04 0.0000e+00
1.7933e-03 7.1627e-04 0.0000e+00
1.9463e-03 7.1343e-04 0.0000e+00
2.0997e-03 7.1028e-04 0.0000e+00
2.2533e-03 7.0634e-04 0.0000e+00
2.4071e-03 7.0178e-04 0.0000e+00
2.5603e-03 6.9634e-04 0.0000e+00
2.7113e-03 6.9083e-04 0.0000e+00
2.8661e-03 6.8400e-04 0.0000e+00
3.0002e-03 6.8053e-04 0.0000e+00
3.1594e-03 6.7399e-04 0.0000e+00
3.3218e-03 6.6795e-04 0.0000e+00
1.4888e-04 8.6481e-04 0.0000e+00
2.9768e-04 8.6494e-04 0.0000e+00
4.4643e-04 8.6509e-04 0.0000e+00
5.9515e-04 8.6524e-04 0.0000e+00
7.4390e-04 8.6539e-04 0.0000e+00
8.9275e-04 8.6549e-04 0.0000e+00
1.0421e-03 8.6533e-04 0.0000e+00
1.1925e-03 8.6442e-04 0.0000e+00
1.3447e-03 8.6276e-04 0.0000e+00
1.4978e-03 8.6027e-04 0.0000e+00
1.6509e-03 8.5750e-04 0.0000e+00
1.8040e-03 8.5463e-04 0.0000e+00
1.9572e-03 8.5151e-04 0.0000e+00
2.1104e-03 8.4787e-04 0.0000e+00
2.2634e-03 8.4387e-04 0.0000e+00
2.4159e-03 8.3938e-04 0.0000e+00
2.5676e-03 8.3485e-04 0.0000e+00
2.7200e-03 8.3002e-04 0.0000e+00
2.8699e-03 8.2538e-04 0.0000e+00
3.0415e-03 8.1943e-04 0.0000e+00
3.1477e-03 8.1673e-04 0.0000e+00
3.3156e-03 8.1147e-04 0.0000e+00
3.4675e-03 8.0975e-04 0.0000e+00
1.4912e-04 1.0081e-03 0.0000e+00
2.9819e-04 1.0083e-03 0.0000e+00
4.4731e-04 1.0084e-03 0.0000e+00
5.9660e-04 1.0084e-03 0.0000e+00
7.4627e-04 1.0083e-03 0.0000e+00
8.9678e-04 1.0076e-03 0.0000e+00
1.0487e-03 1.0061e-03 0.0000e+00
1.2016e-03 1.0039e-03 0.0000e+00
1.3548e-03 1.0010e-03 0.0000e+00
1.5079e-03 9.9827e-04 0.0000e+00
1.6609e-03 9.9534e-04 0.0000e+00
1.8138e-03 9.9231e-04 0.0000e+00
1.9666e-03 9.8901e-04 0.0000e+00
2.1191e-03 9.8552e-04 0.0000e+00
2.2711e-03 9.8175e-04 0.0000e+00
2.4224e-03 9.7799e-04 0.0000e+00
2.5731e-03 9.7408e-04 0.0000e+00
2.7218e-03 9.7029e-04 0.0000e+00
2.8726e-03 9.6460e-04 0.0000e+00
3.0057e-03 9.6019e-04 0.0000e+00
3.1655e-03 9.5985e-04 0.0000e+00
3.3167e-03 9.5475e-04 0.0000e+00
3.4664e-03 9.4781e-04 0.0000e+00
1.4961e-04 1.1507e-03 0.0000e+00
2.9932e-04 1.1507e-03 0.0000e+00
4.4941e-04 1.1505e-03 0.0000e+00
6.0012e-04 1.1499e-03 0.0000e+00
7.5178e-04 1.1487e-03 0.0000e+00
9.0453e-04 1.1467e-03 0.0000e+00
1.0578e-03 1.1441e-03 0.0000e+00
1.2111e-03 1.1412e-03 0.0000e+00
1.3641e-03 1.1384e-03 0.0000e+00
1.5170e-03 1.1355e-03 0.0000e+00
1.6696e-03 1.1327e-03 0.0000e+00
1.8221e-03 1.1297e-03 0.0000e+00
1.9742e-03 1.1266e-03 0.0000e+00
2.1258e-03 1.1234e-03 0.0000e+00
2.2769e-03 1.1203e-03 0.0000e+00
2.4274e-03 1.1171e-03 0.0000e+00
2.5774e-03 1.1140e-03 0.0000e+00
2.7277e-03 1.1099e-03 0.0000e+00
2.8762e-03 1.1050e-03 0.0000e+00
3.0377e-03 1.0883e-03 0.0000e+00
3.1549e-03 1.1171e-03 0.0000e+00
3.3179e-03 1.1003e-03 0.0000e+00
3.4856e-03 1.0937e-03 0.0000e+00
1.5069e-04 1.2917e-03 0.0000e+00
3.0175e-04 1.2912e-03 0.0000e+00
4.5346e-04 1.2901e-03 0.0000e+00
6.0604e-04 1.2885e-03 0.0000e+00
7.5933e-04 1.2862e-03 0.0000e+00
9.1281e-04 1.2834e-03 0.0000e+00
1.0662e-03 1.2806e-03 0.0000e+00
1.2193e-03 1.2778e-03 0.0000e+00
1.3721e-03 1.2751e-03 0.0000e+00
1.5246e-03 1.2724e-03 0.0000e+00
1.6768e-03 1.2697e-03 0.0000e+00
1.8286e-03 1.2671e-03 0.0000e+00
1.9800e-03 1.2644e-03 0.0000e+00
2.1310e-03 1.2618e-03 0.0000e+00
2.2814e-03 1.2592e-03 0.0000e+00
2.4313e-03 1.2567e-03 0.0000e+00
2.5808e-03 1.2541e-03 0.0000e+00
2.7298e-03 1.2516e-03 0.0000e+00
2.8811e-03 1.2463e-03 0.0000e+00
3.0300e-03 1.2420e-03 0.0000e+00
3.1881e-03 1.2298e-03 0.0000e+00
3.3054e-03 1.2581e-03 0.0000e+00
3.4640e-03 1.2431e-03 0.0000e+00
3.5935e-03 1.2145e-03 0.0000e+00
1.5249e-04 1.4298e-03 0.0000e+00
3.0540e-04 1.4287e-03 0.0000e+00
4.5880e-04 1.4268e-03 0.0000e+00
6.1260e-04 1.4243e-03 0.0000e+00
7.6641e-04 1.4216e-03 0.0000e+00
9.2000e-04 1.4189e-03 0.0000e+00
1.0732e-03 1.4163e-03 0.0000e+00
1.2261e-03 1.4138e-03 0.0000e+00
1.3785e-03 1.4114e-03 0.0000e+00
1.5307e-03 1.4091e-03 0.0000e+00
1.6823e-03 1.4068e-03 0.0000e+00
1.8336e-03 1.4046e-03 0.0000e+00
1.9845e-03 1.4025e-03 0.0000e+00
2.1349e-03 1.4005e-03 0.0000e+00
2.2849e-03 1.3985e-03 0.0000e+00
2.4344e-03 1.3965e-03 0.0000e+00
2.5835e-03 1.3945e-03 0.0000e+00
2.7323e-03 1.3925e-03 0.0000e+00
2.8805e-03 1.3906e-03 0.0000e+00
3.0321e-03 1.3850e-03 0.0000e+00
3.1805e-03 1.3830e-03 0.0000e+00
3.3391e-03 1.3707e-03 0.0000e+00
3.4713e-03 1.3951e-03 0.0000e+00
3.6092e-03 1.3511e-03 0.0000e+00
1.5455e-04 1.5645e-03 0.0000e+00
3.0922e-04 1.5630e-03 0.0000e+00
4.6383e-04 1.5608e-03 0.0000e+00
6.1815e-04 1.5583e-03 0.0000e+00
7.7208e-04 1.5559e-03 0.0000e+00
9.2554e-04 1.5536e-03 0.0000e+00
1.0786e-03 1.5514e-03 0.0000e+00
1.2311e-03 1.5494e-03 0.0000e+00
1.3833e-03 1.5475e-03 0.0000e+00
1.5350e-03 1.5457e-03 0.0000e+00
1.6864e-03 1.5440e-03 0.0000e+00
1.8372e-03 1.5424e-03 0.0000e+00
1.9877e-03 1.5408e-03 0.0000e+00
2.1377e-03 1.5393e-03 0.0000e+00
2.2874e-03 1.5379e-03 0.0000e+00
2.4367e-03 1.5365e-03 0.0000e+00
2.5856e-03 1.5350e-03 0.0000e+00
2.7341e-03 1.5336e-03 0.0000e+00
2.8823e-03 1.5322e-03 0.0000e+00
3.0300e-03 1.5308e-03 0.0000e+00
3.1802e-03 1.5266e-03 0.0000e+00
3.3274e-03 1.5272e-03 0.0000e+00
3.4738e-03 1.5261e-03 0.0000e+00
3.6205e-03 1.5202e-03 0.0000e+00
1.5617e-04 1.6960e-03 0.0000e+00
3.1207e-04 1.6947e-03 0.0000e+00
4.6734e-04 1.6930e-03 0.0000e+00
6.2193e-04 1.6912e-03 0.0000e+00
7.7585e-04 1.6894e-03 0.0000e+00
9.2921e-04 1.6877e-03 0.0000e+00
1.0821e-03 1.6862e-03 0.0000e+00
1.2345e-03 1.6848e-03 0.0000e+00
1.3864e-03 1.6835e-03 0.0000e+00
1.5379e-03 1.6823e-03 0.0000e+00
1.6889e-03 1.6812e-03 0.0000e+00
1.8395e-03 1.6802e-03 0.0000e+00
1.9897e-03 1.6792e-03 0.0000e+00
2.1396e-03 1.6783e-03 0.0000e+00
2.2891e-03 1.6774e-03 0.0000e+00
2.4382e-03 1.6765e-03 0.0000e+00
2.5870e-03 1.6756e-03 0.0000e+00
2.7354e-03 1.6747e-03 0.0000e+00
2.8834e-03 1.6739e-03 0.0000e+00
3.0312e-03 1.6730e-03 0.0000e+00
3.1785e-03 1.6721e-03 0.0000e+00
3.3268e-03 1.6702e-03 0.0000e+00
3.4746e-03 1.6713e-03 0.0000e+00
3.6271e-03 1.6677e-03 0.0000e+00
1.5688e-04 1.8256e-03 0.0000e+00
3.1328e-04 1.8251e-03 0.0000e+00
4.6886e-04 1.8243e-03 0.0000e+00
6.2355e-04 1.8234e-03 0.0000e+00
7.7751e-04 1.8225e-03 0.0000e+00
9.3081e-04 1.8216e-03 0.0000e+00
1.0836e-03 1.8208e-03 0.0000e+00
1.2359e-03 1.8201e-03 0.0000e+00
1.3877e-03 1.8194e-03 0.0000e+00
1.5391e-03 1.8189e-03 0.0000e+00
1.6901e-03 1.8184e-03 0.0000e+00
1.8406e-03 1.8180e-03 0.0000e+00
1.9907e-03 1.8176e-03 0.0000e+00
2.1405e-03 1.8173e-03 0.0000e+00
2.2899e-03 1.8169e-03 0.0000e+00
2.4390e-03 1.8166e-03 0.0000e+00
2.5877e-03 1.8162e-03 0.0000e+00
2.7361e-03 1.8159e-03 0.0000e+00
2.8841e-03 1.8155e-03 0.0000e+00
3.0318e-03 1.8152e-03 0.0000e+00
3.1791e-03 1.8148e-03 0.0000e+00
3.3265e-03 1.8144e-03 0.0000e+00
3.4756e-03 1.8140e-03 0.0000e+00
3.6302e-03 1.8145e-03 0.0000e+00
1.5654e-04 1.9549e-03 0.0000e+00
3.1274e-04 1.9551e-03 0.0000e+00
4.6825e-04 1.9554e-03 0.0000e+00
6.2299e-04 1.9555e-03 0.0000e+00
7.7697e-04 1.9555e-03 0.0000e+00
9.3034e-04 1.9554e-03 0.0000e+00
1.0831e-03 1.9554e-03 0.0000e+00
1.2355e-03 1.9554e-03 0.0000e+00
1.3873e-03 1.9554e-03 0.0000e+00
1.5388e-03 1.9555e-03 0.0000e+00
1.6898e-03 1.9556e-03 0.0000e+00
1.8404e-03 1.9558e-03 0.0000e+00
1.9906e-03 1.9560e-03 0.0000e+00
2.1405e-03 1.9562e-03 0.0000e+00
2.2900e-03 1.9564e-03 0.0000e+00
2.4391e-03 1.9566e-03 0.0000e+00
2.5878e-03 1.9568e-03 0.0000e+00
2.7363e-03 1.9570e-03 0.0000e+00
2.8843e-03 1.9572e-03 0.0000e+00
3.0320e-03 1.9574e-03 0.0000e+00
3.1793e-03 1.9575e-03 0.0000e+00
3.3267e-03 1.9577e-03 0.0000e+00
3.4780e-03 1.9605e-03 0.0000e+00
3.6302e-03 1.9607e-03 0.0000e+00
1.5532e-04 2.0855e-03 0.0000e+00
3.1063e-04 2.0861e-03 0.0000e+00
4.6571e-04 2.0870e-03 0.0000e+00
6.2032e-04 2.0879e-03 0.0000e+00
7.7437e-04 2.0887e-03 0.0000e+00
9.2781e-04 2.0894e-03 0.0000e+00
1.0808e-03 2.0901e-03 0.0000e+00
1.2332e-03 2.0907e-03 0.0000e+00
1.3853e-03 2.0913e-03 0.0000e+00
1.5369e-03 2.0920e-03 0.0000e+00
1.6882e-03 2.0928e-03 0.0000e+00
1.8390e-03 2.0936e-03 0.0000e+00
1.9895e-03 2.0943e-03 0.0000e+00
2.1395e-03 2.0951e-03 0.0000e+00
2.2892e-03 2.0959e-03 0.0000e+00
2.4384e-03 2.0966e-03 0.0000e+00
2.5873e-03 2.0973e-03 0.0000e+00
2.7358e-03 2.0981e-03 0.0000e+00
2.8840e-03 2.0988e-03 0.0000e+00
3.0317e-03 2.0995e-03 0.0000e+00
3.1791e-03 2.1002e-03 0.0000e+00
3.3290e-03 2.1037e-03 0.0000e+00
3.4781e-03 2.1070e-03 0.0000e+00
3.6369e-03 2.1178e-03 0.0000e+00
1.5365e-04 2.2185e-03 0.0000e+00
3.0752e-04 2.2189e-03 0.0000e+00
4.6167e-04 2.2199e-03 0.0000e+00
6.1590e-04 2.2211e-03 0.0000e+00
7.6989e-04 2.2225e-03 0.0000e+00
9.2346e-04 2.2238e-03 0.0000e+00
1.0765e-03 2.2250e-03 0.0000e+00
1.2292e-03 2.2262e-03 0.0000e+00
1.3815e-03 2.2274e-03 0.0000e+00
1.5334e-03 2.2286e-03 0.0000e+00
1.6850e-03 2.2298e-03 0.0000e+00
1.8363e-03 2.2311e-03 0.0000e+00
1.9871e-03 2.2325e-03 0.0000e+00
2.1375e-03 2.2338e-03 0.0000e+00
2.2875e-03 2.2351e-03 0.0000e+00
2.4370e-03 2.2365e-03 0.0000e+00
2.5861e-03 2.2378e-03 0.0000e+00
2.7348e-03 2.2390e-03 0.0000e+00
2.8831e-03 2.2403e-03 0.0000e+00
3.0310e-03 2.2416e-03 0.0000e+00
3.1794e-03 2.2438e-03 0.0000e+00
3.3262e-03 2.2469e-03 0.0000e+00
3.4870e-03 2.2616e-03 0.0000e+00
3.6005e-03 2.2316e-03 0.0000e+00
1.5202e-04 2.3544e-03 0.0000e+00
3.0434e-04 2.3545e-03 0.0000e+00
4.5707e-04 2.3549e-03 0.0000e+00
6.1031e-04 2.3558e-03 0.0000e+00
7.6393e-04 2.3572e-03 0.0000e+00
9.1749e-04 2.3588e-03 0.0000e+00
1.0708e-03 2.3604e-03 0.0000e+00
1.2236e-03 2.3620e-03 0.0000e+00
1.3761e-03 2.3636e-03 0.0000e+00
1.5284e-03 2.3652e-03 0.0000e+00
1.6804e-03 2.3668e-03 0.0000e+00
1.8321e-03 2.3685e-03 0.0000e+00
1.9834e-03 2.3704e-03 0.0000e+00
2.1344e-03 2.3723e-03 0.0000e+00
2.2848e-03 2.3742e-03 0.0000e+00
2.4348e-03 2.3761e-03 0.0000e+00
2.5842e-03 2.3780e-03 0.0000e+00
2.7332e-03 2.3799e-03 0.0000e+00
2.8817e-03 2.3818e-03 0.0000e+00
3.0298e-03 2.3837e-03 0.0000e+00
3.1762e-03 2.3855e-03 0.0000e+00
3.3284e-03 2.3901e-03 0.0000e+00
3.4624e-03 2.3911e-03 0.0000e+00
3.6162e-03 2.3868e-03 0.0000e+00
1.5088e-04 2.4929e-03 0.0000e+00
3.0186e-04 2.4926e-03 0.0000e+00
4.5309e-04 2.4926e-03 0.0000e+00
6.0479e-04 2.4927e-03 0.0000e+00
7.5717e-04 2.4934e-03 0.0000e+00
9.1030e-04 2.4947e-03 0.0000e+00
1.0636e-03 2.4965e-03 0.0000e+00
1.2166e-03 2.4984e-03 0.0000e+00
1.3694e-03 2.5002e-03 0.0000e+00
1.5219e-03 2.5020e-03 0.0000e+00
1.6742e-03 2.5038e-03 0.0000e+00
1.8264e-03 2.5058e-03 0.0000e+00
1.9783e-03 2.5080e-03 0.0000e+00
2.1299e-03 2.5104e-03 0.0000e+00
2.2810e-03 2.5129e-03 0.0000e+00
2.4316e-03 2.5155e-03 0.0000e+00
2.5816e-03 2.5180e-03 0.0000e+00
2.7309e-03 2.5205e-03 0.0000e+00
2.8798e-03 2.5231e-03 0.0000e+00
3.0281e-03 2.5255e-03 0.0000e+00
3.1804e-03 2.5299e-03 0.0000e+00
3.3331e-03 2.5326e-03 0.0000e+00
3.5177e-03 2.5323e-03 0.0000e+00
1.5030e-04 2.6332e-03 0.0000e+00
3.0049e-04 2.6328e-03 0.0000e+00
4.5070e-04 2.6325e-03 0.0000e+00
6.0102e-04 2.6323e-03 0.0000e+00
7.5167e-04 2.6321e-03 0.0000e+00
9.0301e-04 2.6325e-03 0.0000e+00
1.0554e-03 2.6336e-03 0.0000e+00
1.2084e-03 2.6353e-03 0.0000e+00
1.3614e-03 2.6373e-03 0.0000e+00
1.5141e-03 2.6392e-03 0.0000e+00
1.6667e-03 2.6411e-03 0.0000e+00
1.8191e-03 2.6432e-03 0.0000e+00
1.9715e-03 2.6455e-03 0.0000e+00
2.1238e-03 2.6481e-03 0.0000e+00
2.2759e-03 2.6511e-03 0.0000e+00
2.4273e-03 2.6543e-03 0.0000e+00
2.5780e-03 2.6576e-03 0.0000e+00
2.7279e-03 2.6609e-03 0.0000e+00
2.8772e-03 2.6641e-03 0.0000e+00
3.0268e-03 2.6682e-03 0.0000e+00
3.1747e-03 2.6731e-03 0.0000e+00
3.3401e-03 2.6886e-03 0.0000e+00
3.4628e-03 2.6584e-03 0.0000e+00
1.4998e-04 2.7743e-03 0.0000e+00
2.9983e-04 2.7741e-03 0.0000e+00
4.4958e-04 2.7738e-03 0.0000e+00
5.9926e-04 2.7735e-03 0.0000e+00
7.4888e-04 2.7732e-03 0.0000e+00
8.9853e-04 2.7729e-03 0.0000e+00
1.0486e-03 2.7730e-03 0.0000e+00
1.1998e-03 2.7737e-03 0.0000e+00
1.3524e-03 2.7750e-03 0.0000e+00
1.5054e-03 2.7769e-03 0.0000e+00
1.6581e-03 2.7789e-03 0.0000e+00
1.8107e-03 2.7809e-03 0.0000e+00
1.9633e-03 2.7831e-03 0.0000e+00
2.1160e-03 2.7857e-03 0.0000e+00
2.2687e-03 2.7888e-03 0.0000e+00
2.4213e-03 2.7925e-03 0.0000e+00
2.5731e-03 2.7966e-03 0.0000e+00
2.7241e-03 2.8008e-03 0.0000e+00
2.8740e-03 2.8048e-03 0.0000e+00
3.0219e-03 2.8087e-03 0.0000e+00
3.1751e-03 2.8155e-03 0.0000e+00
3.3099e-03 2.8184e-03 0.0000e+00
3.4685e-03 2.8165e-03 0.0000e+00
1.4974e-04 2.9160e-03 0.0000e+00
2.9937e-04 2.9159e-03 0.0000e+00
4.4890e-04 2.9158e-03 0.0000e+00
5.9829e-04 2.9156e-03 0.0000e+00
7.4752e-04 2.9155e-03 0.0000e+00
8.9664e-04 2.9152e-03 0.0000e+00
1.0457e-03 2.9149e-03 0.0000e+00
1.1950e-03 2.9146e-03 0.0000e+00
1.3449e-03 2.9147e-03 0.0000e+00
1.4962e-03 2.9157e-03 0.0000e+00
1.6488e-03 2.9172e-03 0.0000e+00
1.8015e-03 2.9192e-03 0.0000e+00
1.9541e-03 2.9213e-03 0.0000e+00
2.1067e-03 2.9234e-03 0.0000e+00
2.2597e-03 2.9263e-03 0.0000e+00
2.4130e-03 2.9299e-03 0.0000e+00
2.5663e-03 2.9346e-03 0.0000e+00
2.7187e-03 2.9398e-03 0.0000e+00
2.8699e-03 2.9449e-03 0.0000e+00
3.0243e-03 2.9519e-03 0.0000e+00
3.1778e-03 2.9569e-03 0.0000e+00
3.3615e-03 2.9596e-03 0.0000e+00
1.4953e-04 3.0581e-03 0.0000e+00
2.9896e-04 3.0581e-03 0.0000e+00
4.4826e-04 3.0582e-03 0.0000e+00
5.9742e-04 3.0582e-03 0.0000e+00
7.4646e-04 3.0582e-03 0.0000e+00
8.9544e-04 3.0581e-03 0.0000e+00
1.0444e-03 3.0579e-03 0.0000e+00
1.1932e-03 3.0575e-03 0.0000e+00
1.3419e-03 3.0571e-03 0.0000e+00
1.4910e-03 3.0569e-03 0.0000e+00
1.6409e-03 3.0572e-03 0.0000e+00
1.7924e-03 3.0585e-03 0.0000e+00
1.9448e-03 3.0601e-03 0.0000e+00
2.0971e-03 3.0622e-03 0.0000e+00
2.2495e-03 3.0644e-03 0.0000e+00
2.4025e-03 3.0675e-03 0.0000e+00
2.5563e-03 3.0715e-03 0.0000e+00
2.7110e-03 3.0771e-03 0.0000e+00
2.8653e-03 3.0847e-03 0.0000e+00
3.0166e-03 3.0930e-03 0.0000e+00
3.1821e-03 3.1117e-03 0.0000e+00
3.3028e-03 3.0838e-03 0.0000e+00
1.4928e-04 3.2003e-03 0.0000e+00
2.9847e-04 3.2005e-03 0.0000e+00
4.4755e-04 3.2007e-03 0.0000e+00
5.9654e-04 3.2009e-03 0.0000e+00
7.4549e-04 3.2010e-03 0.0000e+00
8.9441e-04 3.2010e-03 0.0000e+00
1.0433e-03 3.2009e-03 0.0000e+00
1.1920e-03 3.2007e-03 0.0000e+00
1.3407e-03 3.2004e-03 0.0000e+00
1.4892e-03 3.2000e-03 0.0000e+00
1.6378e-03 3.1996e-03 0.0000e+00
1.7867e-03 3.1995e-03 0.0000e+00
1.9368e-03 3.2003e-03 0.0000e+00
2.0883e-03 3.2016e-03 0.0000e+00
2.2401e-03 3.2037e-03 0.0000e+00
2.3919e-03 3.2059e-03 0.0000e+00
2.5446e-03 3.2087e-03 0.0000e+00
2.6990e-03 3.2126e-03 0.0000e+00
2.8547e-03 3.2194e-03 0.0000e+00
3.0128e-03 3.2318e-03 0.0000e+00
3.1492e-03 3.2395e-03 0.0000e+00
3.2992e-03 3.2403e-03 0.0000e+00
1.4896e-04 3.3420e-03 0.0000e+00
2.9784e-04 3.3418e-03 0.0000e+00
4.4670e-04 3.3421e-03 0.0000e+00
5.9558e-04 3.3424e-03 0.0000e+00
7.4448e-04 3.3425e-03 0.0000e+00
8.9337e-04 3.3425e-03 0.0000e+00
1.0422e-03 3.3425e-03 0.0000e+00
1.1910e-03 3.3424e-03 0.0000e+00
1.3397e-03 3.3422e-03 0.0000e+00
1.4882e-03 3.3420e-03 0.0000e+00
1.6367e-03 3.3416e-03 0.0000e+00
1.7850e-03 3.3413e-03 0.0000e+00
1.9334e-03 3.3411e-03 0.0000e+00
2.0824e-03 3.3414e-03 0.0000e+00
2.2325e-03 3.3428e-03 0.0000e+00
2.3835e-03 3.3447e-03 0.0000e+00
2.5347e-03 3.3463e-03 0.0000e+00
2.6871e-03 3.3484e-03 0.0000e+00
2.8462e-03 3.3533e-03 0.0000e+00
3.0126e-03 3.3650e-03 0.0000e+00
3.1940e-03 3.3801e-03 0.0000e+00
1.4851e-04 3.4813e-03 0.0000e+00
2.9708e-04 3.4802e-03 0.0000e+00
4.4578e-04 3.4802e-03 0.0000e+00
5.9458e-04 3.4804e-03 0.0000e+00
7.4345e-04 3.4805e-03 0.0000e+00
8.9232e-04 3.4805e-03 0.0000e+00
1.0412e-03 3.4805e-03 0.0000e+00
1.1900e-03 3.4805e-03 0.0000e+00
1.3387e-03 3.4804e-03 0.0000e+00
1.4873e-03 3.4803e-03 0.0000e+00
1.6358e-03 3.4801e-03 0.0000e+00
1.7841e-03 3.4799e-03 0.0000e+00
1.9323e-03 3.4797e-03 0.0000e+00
2.0803e-03 3.4797e-03 0.0000e+00
2.2287e-03 3.4800e-03 0.0000e+00
2.3782e-03 3.4810e-03 0.0000e+00
2.5285e-03 3.4823e-03 0.0000e+00
2.6809e-03 3.4836e-03 0.0000e+00
2.8363e-03 3.4875e-03 0.0000e+00
3.0115e-03 3.5029e-03 0.0000e+00
3.1655e-03 3.5008e-03 0.0000e+00
0.0000e+00 -4.7243e-07 0.0000e+00
1.4745e-04 -7.7222e-07 0.0000e+00
2.9526e-04 -7.7666e-07 0.0000e+00
4.4320e-04 -7.7159e-07 0.0000e+00
5.9148e-04 -7.9869e-07 0.0000e+00
7.3963e-04 -7.8371e-07 0.0000e+00
8.8780e-04 -7.8662e-07 0.0000e+00
1.0360e-03 -7.8104e-07 0.0000e+00
1.1841e-03 -7.8383e-07 0.0000e+00
1.3322e-03 -7.7972e-07 0.0000e+00
1.4802e-03 -7.7867e-07 0.0000e+00
1.6281e-03 -7.8931e-07 0.0000e+00
1.7760e-03 -7.7848e-07 0.0000e+00
1.9237e-03 -7.7766e-07 0.0000e+00
2.0713e-03 -7.8744e-07 0.0000e+00
2.2189e-03 -8.1485e-07 0.0000e+00
2.3666e-03 -9.5731e-07 0.0000e+00
2.5152e-03 -1.0540e-06 0.0000e+00
2.6650e-03 -1.2499e-06 0.0000e+00
2.8155e-03 -1.3341e-06 0.0000e+00
2.9684e-03 -1.3757e-06 0.0000e+00
3.1340e-03 -1.5238e-06 0.0000e+00
3.2579e-03 -1.4499e-06 0.0000e+00
3.2874e-03 1.0524e-04 0.0000e+00
3.3286e-03 2.3900e-04 0.0000e+00
3.3942e-03 3.7765e-04 0.0000e+00
3.4630e-03 5.1842e-04 0.0000e+00
3.5284e-03 6.6035e-04 0.0000e+00
3.5881e-03 8.0303e-04 0.0000e+00
3.6408e-03 9.4640e-04 0.0000e+00
3.7233e-03 1.2343e-03 0.0000e+00
3.7527e-03 1.3787e-03 0.0000e+00
3.7734e-03 1.5234e-03 0.0000e+00
3.7860e-03 1.6683e-03 0.0000e+00