# vtk DataFile Version 3.0
VTK Example
ASCII
DATASET UNSTRUCTURED_GRID
POINTS 868 float 
0.000147228 0.000144749 0.0
0.000294429 0.000144809 0.0
0.000441677 0.00014478 0.0
0.000588916 0.000144766 0.0
0.000736168 0.000144749 0.0
0.00088343 0.000144728 0.0
0.0010307 0.000144707 0.0
0.00117798 0.000144693 0.0
0.00132527 0.000144681 0.0
0.00147255 0.000144672 0.0
0.00161983 0.00014466 0.0
0.0017671 0.000144666 0.0
0.00191435 0.000144718 0.0
0.00206153 0.000144743 0.0
0.00220873 0.000144729 0.0
0.00235612 0.000144486 0.0
0.00250448 0.000143433 0.0
0.00265213 0.000141008 0.0
0.00280196 0.000131364 0.0
0.000147274 0.00029093 0.0
0.000294487 0.000290942 0.0
0.000441758 0.000290935 0.0
0.000589023 0.000290904 0.0
0.000736298 0.000290876 0.0
0.000883583 0.000290845 0.0
0.00103087 0.000290817 0.0
0.00117817 0.000290797 0.0
0.00132547 0.000290786 0.0
0.00147277 0.000290781 0.0
0.00162005 0.000290802 0.0
0.00176729 0.000290838 0.0
0.00191454 0.000290901 0.0
0.00206185 0.000290928 0.0
0.00220961 0.000290467 0.0
0.00235886 0.000288978 0.0
0.00251021 0.000285967 0.0
0.0026685 0.000276635 0.0
0.00282956 0.000260542 0.0
0.00295006 0.000280691 0.0
0.000147279 0.000437498 0.0
0.000294566 0.000437477 0.0
0.000441851 0.000437452 0.0
0.000589153 0.000437418 0.0
0.000736457 0.000437374 0.0
0.000883769 0.000437336 0.0
0.00103109 0.0004373 0.0
0.00117841 0.00043727 0.0
0.00132573 0.000437259 0.0
0.00147304 0.000437277 0.0
0.00162032 0.000437314 0.0
0.00176763 0.000437353 0.0
0.0019152 0.000437145 0.0
0.00206385 0.000436239 0.0
0.00221418 0.000434435 0.0
0.00236585 0.000431162 0.0
0.00251856 0.000426338 0.0
0.00267064 0.000420039 0.0
0.00282611 0.000407407 0.0
0.00297481 0.000402637 0.0
0.000147325 0.00058406 0.0
0.000294651 0.000584049 0.0
0.00044198 0.000584011 0.0
0.000589313 0.000583965 0.0
0.000736656 0.000583915 0.0
0.000884006 0.000583862 0.0
0.00103136 0.000583819 0.0
0.00117872 0.000583785 0.0
0.00132607 0.000583781 0.0
0.00147344 0.000583792 0.0
0.00162094 0.000583716 0.0
0.00176908 0.00058317 0.0
0.00191873 0.000581642 0.0
0.00206976 0.000579333 0.0
0.00222147 0.000576189 0.0
0.00237345 0.000572146 0.0
0.00252471 0.000567274 0.0
0.00267442 0.00056282 0.0
0.00282907 0.000562434 0.0
0.00299504 0.000566464 0.0
0.000147384 0.000730532 0.0
0.000294764 0.000730517 0.0
0.000442141 0.000730485 0.0
0.000589522 0.000730425 0.0
0.000736914 0.000730362 0.0
0.000884322 0.000730294 0.0
0.00103175 0.000730235 0.0
0.00117919 0.000730189 0.0
0.00132672 0.000730105 0.0
0.0014746 0.00072979 0.0
0.00162359 0.000728707 0.0
0.00177421 0.000726673 0.0
0.00192554 0.000724023 0.0
0.00207693 0.000720948 0.0
0.00222825 0.000717495 0.0
0.00237895 0.000713686 0.0
0.0025286 0.000710028 0.0
0.00267735 0.000706647 0.0
0.00282303 0.000703511 0.0
0.00297217 0.000700377 0.0
0.000147446 0.000876874 0.0
0.000294903 0.000876863 0.0
0.000442358 0.000876829 0.0
0.000589813 0.000876768 0.0
0.000737292 0.000876666 0.0
0.000884818 0.000876563 0.0
0.00103242 0.000876433 0.0
0.00118024 0.000876172 0.0
0.00132878 0.00087542 0.0
0.00147878 0.000873759 0.0
0.00162999 0.000871344 0.0
0.00178121 0.00086854 0.0
0.00193223 0.00086567 0.0
0.00208299 0.000862588 0.0
0.0022332 0.000859421 0.0
0.00238271 0.000856403 0.0
0.00253155 0.000853546 0.0
0.00267986 0.000850784 0.0
0.00283229 0.000844358 0.0
0.00298995 0.000834137 0.0
0.00311816 0.000860154 0.0
0.000147536 0.00102307 0.0
0.000295089 0.00102302 0.0
0.000442679 0.00102298 0.0
0.000590292 0.00102289 0.0
0.000737961 0.00102271 0.0
0.000885822 0.00102241 0.0
0.00103417 0.00102183 0.0
0.00118359 0.00102053 0.0
0.00133438 0.00101841 0.0
0.00148565 0.00101571 0.0
0.00163657 0.00101295 0.0
0.00178726 0.00101025 0.0
0.0019376 0.00100747 0.0
0.00208748 0.00100475 0.0
0.00223681 0.00100215 0.0
0.00238563 0.00099971 0.0
0.00253404 0.00099736 0.0
0.00268211 0.000995031 0.0
0.00282987 0.000992656 0.0
0.00298915 0.000986453 0.0
0.00314963 0.000990447 0.0
0.000147714 0.00116903 0.0
0.000295409 0.00116893 0.0
0.00044321 0.00116876 0.0
0.000591215 0.00116851 0.0
0.000739569 0.00116799 0.0
0.000888646 0.00116693 0.0
0.00103889 0.00116513 0.0
0.00118997 0.00116269 0.0
0.00134097 0.00115988 0.0
0.00149161 0.00115723 0.0
0.00164201 0.00115464 0.0
0.00179204 0.00115211 0.0
0.00194169 0.0011497 0.0
0.00209089 0.00114743 0.0
0.00223967 0.00114532 0.0
0.0023881 0.00114329 0.0
0.00253625 0.00114131 0.0
0.00268412 0.00113932 0.0
0.00283175 0.0011373 0.0
0.00297629 0.00113528 0.0
0.00312502 0.00112954 0.0
0.000148047 0.00131448 0.0
0.000296166 0.00131426 0.0
0.000444603 0.00131369 0.0
0.000593683 0.00131278 0.0
0.00074358 0.00131142 0.0
0.000894216 0.00130929 0.0
0.00104512 0.00130659 0.0
0.00119586 0.00130385 0.0
0.00134634 0.00130127 0.0
0.00149651 0.00129877 0.0
0.00164633 0.00129645 0.0
0.00179581 0.00129427 0.0
0.00194489 0.00129226 0.0
0.00209363 0.00129042 0.0
0.00224206 0.00128868 0.0
0.00239024 0.001287 0.0
0.00253819 0.00128533 0.0
0.00268591 0.00128366 0.0
0.0028334 0.00128196 0.0
0.00298503 0.00127656 0.0
0.00314027 0.00126742 0.0
0.0032596 0.00129082 0.0
0.000148827 0.00145873 0.0
0.000298001 0.00145811 0.0
0.000447695 0.00145684 0.0
0.000597949 0.00145503 0.0
0.000748729 0.00145274 0.0
0.00089966 0.00145014 0.0
0.00105035 0.00144745 0.0
0.0012007 0.00144492 0.0
0.00135072 0.00144256 0.0
0.00150042 0.00144041 0.0
0.00164977 0.00143844 0.0
0.00179877 0.00143667 0.0
0.00194746 0.00143506 0.0
0.00209589 0.00143357 0.0
0.00224409 0.00143216 0.0
0.00239207 0.00143078 0.0
0.00253986 0.00142942 0.0
0.00268745 0.00142804 0.0
0.00283484 0.00142665 0.0
0.00298204 0.00142521 0.0
0.00313514 0.00141645 0.0
0.00327915 0.00141135 0.0
0.000150186 0.00160083 0.0
0.000300678 0.00159963 0.0
0.000451477 0.00159779 0.0
0.000602489 0.00159542 0.0
0.000753462 0.00159287 0.0
0.000904199 0.00159036 0.0
0.00105459 0.00158803 0.0
0.00120459 0.00158585 0.0
0.00135422 0.00158389 0.0
0.0015035 0.00158214 0.0
0.00165246 0.0015806 0.0
0.00180113 0.00157922 0.0
0.00194954 0.00157797 0.0
0.00209775 0.00157681 0.0
0.00224577 0.0015757 0.0
0.0023936 0.00157463 0.0
0.00254126 0.00157355 0.0
0.00268874 0.00157246 0.0
0.00283605 0.00157135 0.0
0.00298317 0.00157022 0.0
0.0031306 0.00156906 0.0
0.00328242 0.00156421 0.0
0.000151682 0.00174021 0.0
0.000303382 0.00173883 0.0
0.000454986 0.00173682 0.0
0.000606327 0.00173457 0.0
0.000757276 0.00173231 0.0
0.000907795 0.00173025 0.0
0.0010579 0.00172838 0.0
0.00120759 0.00172673 0.0
0.0013569 0.00172525 0.0
0.00150586 0.00172398 0.0
0.00165453 0.00172285 0.0
0.00180297 0.00172186 0.0
0.00195119 0.00172095 0.0
0.00209924 0.00172011 0.0
0.00224711 0.0017193 0.0
0.00239483 0.0017185 0.0
0.00254239 0.00171771 0.0
0.00268979 0.0017169 0.0
0.00283702 0.00171607 0.0
0.00298409 0.00171522 0.0
0.00313285 0.00171434 0.0
0.00328846 0.0017134 0.0
0.000152863 0.00187723 0.0
0.000305463 0.00187606 0.0
0.000457585 0.00187453 0.0
0.000609114 0.00187285 0.0
0.000760042 0.00187129 0.0
0.000910408 0.00186987 0.0
0.00106029 0.00186865 0.0
0.00120973 0.00186757 0.0
0.0013588 0.00186667 0.0
0.00150755 0.00186586 0.0
0.00165605 0.00186517 0.0
0.00180432 0.00186455 0.0
0.00195242 0.00186398 0.0
0.00210034 0.00186345 0.0
0.00224812 0.00186293 0.0
0.00239575 0.00186242 0.0
0.00254324 0.00186189 0.0
0.00269057 0.00186136 0.0
0.00283775 0.0018608 0.0
0.00298478 0.00186023 0.0
0.00313447 0.00185962 0.0
0.00329495 0.00185896 0.0
0.000153548 0.00201258 0.0
0.000306662 0.00201206 0.0
0.000459099 0.00201133 0.0
0.000610778 0.00201062 0.0
0.000761714 0.00200992 0.0
0.00091201 0.00200934 0.0
0.00106175 0.00200883 0.0
0.00121106 0.00200843 0.0
0.00135999 0.00200807 0.0
0.00150863 0.00200778 0.0
0.00165702 0.00200751 0.0
0.00180521 0.00200727 0.0
0.00195322 0.00200703 0.0
0.00210108 0.00200681 0.0
0.00224879 0.00200658 0.0
0.00239636 0.00200635 0.0
0.0025438 0.0020061 0.0
0.00269109 0.00200583 0.0
0.00283824 0.00200555 0.0
0.00298523 0.00200524 0.0
0.00313552 0.00200492 0.0
0.00329903 0.00200455 0.0
0.000153735 0.00214724 0.0
0.000306989 0.00214741 0.0
0.000459552 0.00214773 0.0
0.000611301 0.00214803 0.0
0.000762286 0.00214839 0.0
0.000912575 0.00214869 0.0
0.00106231 0.00214899 0.0
0.00121157 0.00214924 0.0
0.00136048 0.00214949 0.0
0.00150908 0.00214968 0.0
0.00165745 0.00214985 0.0
0.00180561 0.00214998 0.0
0.0019536 0.00215009 0.0
0.00210143 0.00215018 0.0
0.00224912 0.00215025 0.0
0.00239666 0.00215029 0.0
0.00254407 0.00215031 0.0
0.00269134 0.00215032 0.0
0.00283847 0.0021503 0.0
0.00298545 0.00215027 0.0
0.00313593 0.00215021 0.0
0.00330048 0.00215014 0.0
0.000153442 0.00228192 0.0
0.000306504 0.00228288 0.0
0.000458946 0.00228407 0.0
0.000610696 0.00228547 0.0
0.000761716 0.00228677 0.0
0.000912108 0.00228802 0.0
0.00106192 0.00228908 0.0
0.00121129 0.00229004 0.0
0.00136026 0.00229085 0.0
0.00150894 0.00229156 0.0
0.00165734 0.00229216 0.0
0.00180555 0.00229269 0.0
0.00195355 0.00229314 0.0
0.0021014 0.00229355 0.0
0.00224909 0.00229391 0.0
0.00239665 0.00229423 0.0
0.00254406 0.00229453 0.0
0.00269133 0.0022948 0.0
0.00283846 0.00229506 0.0
0.00298543 0.00229529 0.0
0.00313575 0.00229552 0.0
0.00329945 0.00229574 0.0
0.000152685 0.00241758 0.0
0.000305161 0.00241896 0.0
0.000457286 0.00242095 0.0
0.000608901 0.00242309 0.0
0.00076001 0.0024253 0.0
0.000910545 0.00242731 0.0
0.00106059 0.00242917 0.0
0.00121014 0.00243076 0.0
0.00135932 0.00243217 0.0
0.00150814 0.00243337 0.0
0.0016567 0.00243443 0.0
0.00180499 0.00243535 0.0
0.00195309 0.00243617 0.0
0.00210098 0.0024369 0.0
0.00224873 0.00243756 0.0
0.00239631 0.00243817 0.0
0.00254376 0.00243874 0.0
0.00269105 0.00243929 0.0
0.00283819 0.00243981 0.0
0.00298518 0.00244032 0.0
0.00313494 0.00244081 0.0
0.00329963 0.00244499 0.0
0.000151445 0.00255487 0.0
0.000303015 0.00255649 0.0
0.000454546 0.00255868 0.0
0.000605981 0.00256135 0.0
0.000757113 0.00256404 0.0
0.000907906 0.00256674 0.0
0.00105822 0.00256918 0.0
0.00120814 0.00257143 0.0
0.0013576 0.00257337 0.0
0.00150672 0.00257511 0.0
0.00165547 0.00257662 0.0
0.00180396 0.00257797 0.0
0.00195217 0.00257915 0.0
0.0021002 0.00258022 0.0
[...]
POINT_DATA 868
VECTORS Position float
1.4723e-04 1.4475e-04 0.0000e+00
2.9443e-04 1.4481e-04 0.0000e+00
4.4168e-04 1.4478e-04 0.0000e+00
5.8892e-04 1.4477e-04 0.0000e+00
7.3617e-04 1.4475e-04 0.0000e+00
8.8343e-04 1.4473e-04 0.0000e+00
1.0307e-03 1.4471e-04 0.0000e+00
1.1780e-03 1.4469e-04 0.0000e+00
1.3253e-03 1.4468e-04 0.0000e+00
1.4726e-03 1.4467e-04 0.0000e+00
1.6198e-03 1.4466e-04 0.0000e+00
1.7671e-03 1.4467e-04 0.0000e+00
1.9143e-03 1.4472e-04 0.0000e+00
2.0615e-03 1.4474e-04 0.0000e+00
2.2087e-03 1.4473e-04 0.0000e+00
2.3561e-03 1.4449e-04 0.0000e+00
2.5045e-03 1.4343e-04 0.0000e+00
2.6521e-03 1.4101e-04 0.0000e+00
2.8020e-03 1.3136e-04 0.0000e+00
1.4727e-04 2.9093e-04 0.0000e+00
2.9449e-04 2.9094e-04 0.0000e+00
4.4176e-04 2.9093e-04 0.0000e+00
5.8902e-04 2.9090e-04 0.0000e+00
7.3630e-04 2.9088e-04 0.0000e+00
8.8358e-04 2.9084e-04 0.0000e+00
1.0309e-03 2.9082e-04 0.0000e+00
1.1782e-03 2.9080e-04 0.0000e+00
1.3255e-03 2.9079e-04 0.0000e+00
1.4728e-03 2.9078e-04 0.0000e+00
1.6200e-03 2.9080e-04 0.0000e+00
1.7673e-03 2.9084e-04 0.0000e+00
1.9145e-03 2.9090e-04 0.0000e+00
2.0618e-03 2.9093e-04 0.0000e+00
2.2096e-03 2.9047e-04 0.0000e+00
2.3589e-03 2.8898e-04 0.0000e+00
2.5102e-03 2.8597e-04 0.0000e+00
2.6685e-03 2.7664e-04 0.0000e+00
2.8296e-03 2.6054e-04 0.0000e+00
2.9501e-03 2.8069e-04 0.0000e+00
1.4728e-04 4.3750e-04 0.0000e+00
2.9457e-04 4.3748e-04 0.0000e+00
4.4185e-04 4.3745e-04 0.0000e+00
5.8915e-04 4.3742e-04 0.0000e+00
7.3646e-04 4.3737e-04 0.0000e+00
8.8377e-04 4.3734e-04 0.0000e+00
1.0311e-03 4.3730e-04 0.0000e+00
1.1784e-03 4.3727e-04 0.0000e+00
1.3257e-03 4.3726e-04 0.0000e+00
1.4730e-03 4.3728e-04 0.0000e+00
1.6203e-03 4.3731e-04 0.0000e+00
1.7676e-03 4.3735e-04 0.0000e+00
1.9152e-03 4.3714e-04 0.0000e+00
2.0639e-03 4.3624e-04 0.0000e+00
2.2142e-03 4.3443e-04 0.0000e+00
2.3658e-03 4.3116e-04 0.0000e+00
2.5186e-03 4.2634e-04 0.0000e+00
2.6706e-03 4.2004e-04 0.0000e+00
2.8261e-03 4.0741e-04 0.0000e+00
2.9748e-03 4.0264e-04 0.0000e+00
1.4733e-04 5.8406e-04 0.0000e+00
2.9465e-04 5.8405e-04 0.0000e+00
4.4198e-04 5.8401e-04 0.0000e+00
5.8931e-04 5.8397e-04 0.0000e+00
7.3666e-04 5.8391e-04 0.0000e+00
8.8401e-04 5.8386e-04 0.0000e+00
1.0314e-03 5.8382e-04 0.0000e+00
1.1787e-03 5.8378e-04 0.0000e+00
1.3261e-03 5.8378e-04 0.0000e+00
1.4734e-03 5.8379e-04 0.0000e+00
1.6209e-03 5.8372e-04 0.0000e+00
1.7691e-03 5.8317e-04 0.0000e+00
1.9187e-03 5.8164e-04 0.0000e+00
2.0698e-03 5.7933e-04 0.0000e+00
2.2215e-03 5.7619e-04 0.0000e+00
2.3735e-03 5.7215e-04 0.0000e+00
2.5247e-03 5.6727e-04 0.0000e+00
2.6744e-03 5.6282e-04 0.0000e+00
2.8291e-03 5.6243e-04 0.0000e+00
2.9950e-03 5.6646e-04 0.0000e+00
1.4738e-04 7.3053e-04 0.0000e+00
2.9476e-04 7.3052e-04 0.0000e+00
4.4214e-04 7.3048e-04 0.0000e+00
5.8952e-04 7.3043e-04 0.0000e+00
7.3691e-04 7.3036e-04 0.0000e+00
8.8432e-04 7.3029e-04 0.0000e+00
1.0317e-03 7.3023e-04 0.0000e+00
1.1792e-03 7.3019e-04 0.0000e+00
1.3267e-03 7.3011e-04 0.0000e+00
1.4746e-03 7.2979e-04 0.0000e+00
1.6236e-03 7.2871e-04 0.0000e+00
1.7742e-03 7.2667e-04 0.0000e+00
1.9255e-03 7.2402e-04 0.0000e+00
2.0769e-03 7.2095e-04 0.0000e+00
2.2283e-03 7.1749e-04 0.0000e+00
2.3790e-03 7.1369e-04 0.0000e+00
2.5286e-03 7.1003e-04 0.0000e+00
2.6774e-03 7.0665e-04 0.0000e+00
2.8230e-03 7.0351e-04 0.0000e+00
2.9722e-03 7.0038e-04 0.0000e+00
1.4745e-04 8.7687e-04 0.0000e+00
2.9490e-04 8.7686e-04 0.0000e+00
4.4236e-04 8.7683e-04 0.0000e+00
5.8981e-04 8.7677e-04 0.0000e+00
7.3729e-04 8.7667e-04 0.0000e+00
8.8482e-04 8.7656e-04 0.0000e+00
1.0324e-03 8.7643e-04 0.0000e+00
1.1802e-03 8.7617e-04 0.0000e+00
1.3288e-03 8.7542e-04 0.0000e+00
1.4788e-03 8.7376e-04 0.0000e+00
1.6300e-03 8.7134e-04 0.0000e+00
1.7812e-03 8.6854e-04 0.0000e+00
1.9322e-03 8.6567e-04 0.0000e+00
2.0830e-03 8.6259e-04 0.0000e+00
2.2332e-03 8.5942e-04 0.0000e+00
2.3827e-03 8.5640e-04 0.0000e+00
2.5316e-03 8.5355e-04 0.0000e+00
2.6799e-03 8.5078e-04 0.0000e+00
2.8323e-03 8.4436e-04 0.0000e+00
2.9899e-03 8.3414e-04 0.0000e+00
3.1182e-03 8.6015e-04 0.0000e+00
1.4754e-04 1.0231e-03 0.0000e+00
2.9509e-04 1.0230e-03 0.0000e+00
4.4268e-04 1.0230e-03 0.0000e+00
5.9029e-04 1.0229e-03 0.0000e+00
7.3796e-04 1.0227e-03 0.0000e+00
8.8582e-04 1.0224e-03 0.0000e+00
1.0342e-03 1.0218e-03 0.0000e+00
1.1836e-03 1.0205e-03 0.0000e+00
1.3344e-03 1.0184e-03 0.0000e+00
1.4856e-03 1.0157e-03 0.0000e+00
1.6366e-03 1.0130e-03 0.0000e+00
1.7873e-03 1.0103e-03 0.0000e+00
1.9376e-03 1.0075e-03 0.0000e+00
2.0875e-03 1.0048e-03 0.0000e+00
2.2368e-03 1.0022e-03 0.0000e+00
2.3856e-03 9.9971e-04 0.0000e+00
2.5340e-03 9.9736e-04 0.0000e+00
2.6821e-03 9.9503e-04 0.0000e+00
2.8299e-03 9.9266e-04 0.0000e+00
2.9892e-03 9.8645e-04 0.0000e+00
3.1496e-03 9.9045e-04 0.0000e+00
1.4771e-04 1.1690e-03 0.0000e+00
2.9541e-04 1.1689e-03 0.0000e+00
4.4321e-04 1.1688e-03 0.0000e+00
5.9122e-04 1.1685e-03 0.0000e+00
7.3957e-04 1.1680e-03 0.0000e+00
8.8865e-04 1.1669e-03 0.0000e+00
1.0389e-03 1.1651e-03 0.0000e+00
1.1900e-03 1.1627e-03 0.0000e+00
1.3410e-03 1.1599e-03 0.0000e+00
1.4916e-03 1.1572e-03 0.0000e+00
1.6420e-03 1.1546e-03 0.0000e+00
1.7920e-03 1.1521e-03 0.0000e+00
1.9417e-03 1.1497e-03 0.0000e+00
2.0909e-03 1.1474e-03 0.0000e+00
2.2397e-03 1.1453e-03 0.0000e+00
2.3881e-03 1.1433e-03 0.0000e+00
2.5362e-03 1.1413e-03 0.0000e+00
2.6841e-03 1.1393e-03 0.0000e+00
2.8317e-03 1.1373e-03 0.0000e+00
2.9763e-03 1.1353e-03 0.0000e+00
3.1250e-03 1.1295e-03 0.0000e+00
1.4805e-04 1.3145e-03 0.0000e+00
2.9617e-04 1.3143e-03 0.0000e+00
4.4460e-04 1.3137e-03 0.0000e+00
5.9368e-04 1.3128e-03 0.0000e+00
7.4358e-04 1.3114e-03 0.0000e+00
8.9422e-04 1.3093e-03 0.0000e+00
1.0451e-03 1.3066e-03 0.0000e+00
1.1959e-03 1.3038e-03 0.0000e+00
1.3463e-03 1.3013e-03 0.0000e+00
1.4965e-03 1.2988e-03 0.0000e+00
1.6463e-03 1.2964e-03 0.0000e+00
1.7958e-03 1.2943e-03 0.0000e+00
1.9449e-03 1.2923e-03 0.0000e+00
2.0936e-03 1.2904e-03 0.0000e+00
2.2421e-03 1.2887e-03 0.0000e+00
2.3902e-03 1.2870e-03 0.0000e+00
2.5382e-03 1.2853e-03 0.0000e+00
2.6859e-03 1.2837e-03 0.0000e+00
2.8334e-03 1.2820e-03 0.0000e+00
2.9850e-03 1.2766e-03 0.0000e+00
3.1403e-03 1.2674e-03 0.0000e+00
3.2596e-03 1.2908e-03 0.0000e+00
1.4883e-04 1.4587e-03 0.0000e+00
2.9800e-04 1.4581e-03 0.0000e+00
4.4769e-04 1.4568e-03 0.0000e+00
5.9795e-04 1.4550e-03 0.0000e+00
7.4873e-04 1.4527e-03 0.0000e+00
8.9966e-04 1.4501e-03 0.0000e+00
1.0504e-03 1.4475e-03 0.0000e+00
1.2007e-03 1.4449e-03 0.0000e+00
1.3507e-03 1.4426e-03 0.0000e+00
1.5004e-03 1.4404e-03 0.0000e+00
1.6498e-03 1.4384e-03 0.0000e+00
1.7988e-03 1.4367e-03 0.0000e+00
1.9475e-03 1.4351e-03 0.0000e+00
2.0959e-03 1.4336e-03 0.0000e+00
2.2441e-03 1.4322e-03 0.0000e+00
2.3921e-03 1.4308e-03 0.0000e+00
2.5399e-03 1.4294e-03 0.0000e+00
2.6874e-03 1.4280e-03 0.0000e+00
2.8348e-03 1.4266e-03 0.0000e+00
2.9820e-03 1.4252e-03 0.0000e+00
3.1351e-03 1.4164e-03 0.0000e+00
3.2791e-03 1.4114e-03 0.0000e+00
1.5019e-04 1.6008e-03 0.0000e+00
3.0068e-04 1.5996e-03 0.0000e+00
4.5148e-04 1.5978e-03 0.0000e+00
6.0249e-04 1.5954e-03 0.0000e+00
7.5346e-04 1.5929e-03 0.0000e+00
9.0420e-04 1.5904e-03 0.0000e+00
1.0546e-03 1.5880e-03 0.0000e+00
1.2046e-03 1.5858e-03 0.0000e+00
1.3542e-03 1.5839e-03 0.0000e+00
1.5035e-03 1.5821e-03 0.0000e+00
1.6525e-03 1.5806e-03 0.0000e+00
1.8011e-03 1.5792e-03 0.0000e+00
1.9495e-03 1.5780e-03 0.0000e+00
2.0978e-03 1.5768e-03 0.0000e+00
2.2458e-03 1.5757e-03 0.0000e+00
2.3936e-03 1.5746e-03 0.0000e+00
2.5413e-03 1.5735e-03 0.0000e+00
2.6887e-03 1.5725e-03 0.0000e+00
2.8361e-03 1.5713e-03 0.0000e+00
2.9832e-03 1.5702e-03 0.0000e+00
3.1306e-03 1.5691e-03 0.0000e+00
3.2824e-03 1.5642e-03 0.0000e+00
1.5168e-04 1.7402e-03 0.0000e+00
3.0338e-04 1.7388e-03 0.0000e+00
4.5499e-04 1.7368e-03 0.0000e+00
6.0633e-04 1.7346e-03 0.0000e+00
7.5728e-04 1.7323e-03 0.0000e+00
9.0780e-04 1.7302e-03 0.0000e+00
1.0579e-03 1.7284e-03 0.0000e+00
1.2076e-03 1.7267e-03 0.0000e+00
1.3569e-03 1.7253e-03 0.0000e+00
1.5059e-03 1.7240e-03 0.0000e+00
1.6545e-03 1.7229e-03 0.0000e+00
1.8030e-03 1.7219e-03 0.0000e+00
1.9512e-03 1.7210e-03 0.0000e+00
2.0992e-03 1.7201e-03 0.0000e+00
2.2471e-03 1.7193e-03 0.0000e+00
2.3948e-03 1.7185e-03 0.0000e+00
2.5424e-03 1.7177e-03 0.0000e+00
2.6898e-03 1.7169e-03 0.0000e+00
2.8370e-03 1.7161e-03 0.0000e+00
2.9841e-03 1.7152e-03 0.0000e+00
3.1328e-03 1.7143e-03 0.0000e+00
3.2885e-03 1.7134e-03 0.0000e+00
1.5286e-04 1.8772e-03 0.0000e+00
3.0546e-04 1.8761e-03 0.0000e+00
4.5759e-04 1.8745e-03 0.0000e+00
6.0911e-04 1.8729e-03 0.0000e+00
7.6004e-04 1.8713e-03 0.0000e+00
9.1041e-04 1.8699e-03 0.0000e+00
1.0603e-03 1.8686e-03 0.0000e+00
1.2097e-03 1.8676e-03 0.0000e+00
1.3588e-03 1.8667e-03 0.0000e+00
1.5076e-03 1.8659e-03 0.0000e+00
1.6560e-03 1.8652e-03 0.0000e+00
1.8043e-03 1.8645e-03 0.0000e+00
1.9524e-03 1.8640e-03 0.0000e+00
2.1003e-03 1.8634e-03 0.0000e+00
2.2481e-03 1.8629e-03 0.0000e+00
2.3958e-03 1.8624e-03 0.0000e+00
2.5432e-03 1.8619e-03 0.0000e+00
2.6906e-03 1.8614e-03 0.0000e+00
2.8378e-03 1.8608e-03 0.0000e+00
2.9848e-03 1.8602e-03 0.0000e+00
3.1345e-03 1.8596e-03 0.0000e+00
3.2950e-03 1.8590e-03 0.0000e+00
1.5355e-04 2.0126e-03 0.0000e+00
3.0666e-04 2.0121e-03 0.0000e+00
4.5910e-04 2.0113e-03 0.0000e+00
6.1078e-04 2.0106e-03 0.0000e+00
7.6171e-04 2.0099e-03 0.0000e+00
9.1201e-04 2.0093e-03 0.0000e+00
1.0618e-03 2.0088e-03 0.0000e+00
1.2111e-03 2.0084e-03 0.0000e+00
1.3600e-03 2.0081e-03 0.0000e+00
1.5086e-03 2.0078e-03 0.0000e+00
1.6570e-03 2.0075e-03 0.0000e+00
1.8052e-03 2.0073e-03 0.0000e+00
1.9532e-03 2.0070e-03 0.0000e+00
2.1011e-03 2.0068e-03 0.0000e+00
2.2488e-03 2.0066e-03 0.0000e+00
2.3964e-03 2.0063e-03 0.0000e+00
2.5438e-03 2.0061e-03 0.0000e+00
2.6911e-03 2.0058e-03 0.0000e+00
2.8382e-03 2.0055e-03 0.0000e+00
2.9852e-03 2.0052e-03 0.0000e+00
3.1355e-03 2.0049e-03 0.0000e+00
3.2990e-03 2.0045e-03 0.0000e+00
1.5373e-04 2.1472e-03 0.0000e+00
3.0699e-04 2.1474e-03 0.0000e+00
4.5955e-04 2.1477e-03 0.0000e+00
6.1130e-04 2.1480e-03 0.0000e+00
7.6229e-04 2.1484e-03 0.0000e+00
9.1257e-04 2.1487e-03 0.0000e+00
1.0623e-03 2.1490e-03 0.0000e+00
1.2116e-03 2.1492e-03 0.0000e+00
1.3605e-03 2.1495e-03 0.0000e+00
1.5091e-03 2.1497e-03 0.0000e+00
1.6575e-03 2.1498e-03 0.0000e+00
1.8056e-03 2.1500e-03 0.0000e+00
1.9536e-03 2.1501e-03 0.0000e+00
2.1014e-03 2.1502e-03 0.0000e+00
2.2491e-03 2.1502e-03 0.0000e+00
2.3967e-03 2.1503e-03 0.0000e+00
2.5441e-03 2.1503e-03 0.0000e+00
2.6913e-03 2.1503e-03 0.0000e+00
2.8385e-03 2.1503e-03 0.0000e+00
2.9854e-03 2.1503e-03 0.0000e+00
3.1359e-03 2.1502e-03 0.0000e+00
3.3005e-03 2.1501e-03 0.0000e+00
1.5344e-04 2.2819e-03 0.0000e+00
3.0650e-04 2.2829e-03 0.0000e+00
4.5895e-04 2.2841e-03 0.0000e+00
6.1070e-04 2.2855e-03 0.0000e+00
7.6172e-04 2.2868e-03 0.0000e+00
9.1211e-04 2.2880e-03 0.0000e+00
1.0619e-03 2.2891e-03 0.0000e+00
1.2113e-03 2.2900e-03 0.0000e+00
1.3603e-03 2.2908e-03 0.0000e+00
1.5089e-03 2.2916e-03 0.0000e+00
1.6573e-03 2.2922e-03 0.0000e+00
1.8055e-03 2.2927e-03 0.0000e+00
1.9535e-03 2.2931e-03 0.0000e+00
2.1014e-03 2.2935e-03 0.0000e+00
2.2491e-03 2.2939e-03 0.0000e+00
2.3966e-03 2.2942e-03 0.0000e+00
2.5441e-03 2.2945e-03 0.0000e+00
2.6913e-03 2.2948e-03 0.0000e+00
2.8385e-03 2.2951e-03 0.0000e+00
2.9854e-03 2.2953e-03 0.0000e+00
3.1357e-03 2.2955e-03 0.0000e+00
3.2995e-03 2.2957e-03 0.0000e+00
1.5268e-04 2.4176e-03 0.0000e+00
3.0516e-04 2.4190e-03 0.0000e+00
4.5729e-04 2.4210e-03 0.0000e+00
6.0890e-04 2.4231e-03 0.0000e+00
7.6001e-04 2.4253e-03 0.0000e+00
9.1055e-04 2.4273e-03 0.0000e+00
1.0606e-03 2.4292e-03 0.0000e+00
1.2101e-03 2.4308e-03 0.0000e+00
1.3593e-03 2.4322e-03 0.0000e+00
1.5081e-03 2.4334e-03 0.0000e+00
1.6567e-03 2.4344e-03 0.0000e+00
1.8050e-03 2.4353e-03 0.0000e+00
1.9531e-03 2.4362e-03 0.0000e+00
2.1010e-03 2.4369e-03 0.0000e+00
2.2487e-03 2.4376e-03 0.0000e+00
2.3963e-03 2.4382e-03 0.0000e+00
2.5438e-03 2.4387e-03 0.0000e+00
2.6910e-03 2.4393e-03 0.0000e+00
2.8382e-03 2.4398e-03 0.0000e+00
2.9852e-03 2.4403e-03 0.0000e+00
3.1349e-03 2.4408e-03 0.0000e+00
3.2996e-03 2.4450e-03 0.0000e+00
1.5145e-04 2.5549e-03 0.0000e+00
3.0301e-04 2.5565e-03 0.0000e+00
4.5455e-04 2.5587e-03 0.0000e+00
6.0598e-04 2.5613e-03 0.0000e+00
7.5711e-04 2.5640e-03 0.0000e+00
9.0791e-04 2.5667e-03 0.0000e+00
1.0582e-03 2.5692e-03 0.0000e+00
1.2081e-03 2.5714e-03 0.0000e+00
1.3576e-03 2.5734e-03 0.0000e+00
1.5067e-03 2.5751e-03 0.0000e+00
1.6555e-03 2.5766e-03 0.0000e+00
1.8040e-03 2.5780e-03 0.0000e+00
1.9522e-03 2.5792e-03 0.0000e+00
2.1002e-03 2.5802e-03 0.0000e+00
2.2480e-03 2.5812e-03 0.0000e+00
2.3957e-03 2.5821e-03 0.0000e+00
2.5432e-03 2.5829e-03 0.0000e+00
2.6905e-03 2.5838e-03 0.0000e+00
2.8377e-03 2.5846e-03 0.0000e+00
2.9847e-03 2.5853e-03 0.0000e+00
3.1410e-03 2.5934e-03 0.0000e+00
3.2999e-03 2.5979e-03 0.0000e+00
1.4998e-04 2.6947e-03 0.0000e+00
3.0029e-04 2.6959e-03 0.0000e+00
4.5103e-04 2.6979e-03 0.0000e+00
6.0203e-04 2.7004e-03 0.0000e+00
7.5317e-04 2.7033e-03 0.0000e+00
9.0412e-04 2.7063e-03 0.0000e+00
1.0548e-03 2.7093e-03 0.0000e+00
1.2051e-03 2.7120e-03 0.0000e+00
1.3551e-03 2.7145e-03 0.0000e+00
1.5046e-03 2.7167e-03 0.0000e+00
1.6537e-03 2.7187e-03 0.0000e+00
1.8024e-03 2.7205e-03 0.0000e+00
1.9508e-03 2.7221e-03 0.0000e+00
2.0990e-03 2.7235e-03 0.0000e+00
2.2470e-03 2.7248e-03 0.0000e+00
2.3947e-03 2.7260e-03 0.0000e+00
2.5423e-03 2.7271e-03 0.0000e+00
2.6897e-03 2.7282e-03 0.0000e+00
2.8369e-03 2.7293e-03 0.0000e+00
2.9913e-03 2.7377e-03 0.0000e+00
3.1384e-03 2.7387e-03 0.0000e+00
3.2699e-03 2.7215e-03 0.0000e+00
1.4871e-04 2.8371e-03 0.0000e+00
2.9772e-04 2.8378e-03 0.0000e+00
4.4730e-04 2.8390e-03 0.0000e+00
5.9759e-04 2.8409e-03 0.0000e+00
7.4833e-04 2.8434e-03 0.0000e+00
8.9936e-04 2.8464e-03 0.0000e+00
1.0503e-03 2.8494e-03 0.0000e+00
1.2011e-03 2.8525e-03 0.0000e+00
1.3516e-03 2.8554e-03 0.0000e+00
1.5016e-03 2.8581e-03 0.0000e+00
1.6511e-03 2.8606e-03 0.0000e+00
1.8003e-03 2.8629e-03 0.0000e+00
1.9490e-03 2.8649e-03 0.0000e+00
2.0975e-03 2.8667e-03 0.0000e+00
2.2456e-03 2.8683e-03 0.0000e+00
2.3935e-03 2.8698e-03 0.0000e+00
2.5412e-03 2.8713e-03 0.0000e+00
2.6886e-03 2.8727e-03 0.0000e+00
2.8432e-03 2.8814e-03 0.0000e+00
2.9903e-03 2.8827e-03 0.0000e+00
3.1190e-03 2.8658e-03 0.0000e+00
3.2734e-03 2.8780e-03 0.0000e+00
1.4796e-04 2.9816e-03 0.0000e+00
2.9604e-04 2.9818e-03 0.0000e+00
4.4442e-04 2.9823e-03 0.0000e+00
5.9341e-04 2.9832e-03 0.0000e+00
7.4327e-04 2.9849e-03 0.0000e+00
8.9380e-04 2.9872e-03 0.0000e+00
1.0449e-03 2.9899e-03 0.0000e+00
1.1961e-03 2.9930e-03 0.0000e+00
1.3470e-03 2.9962e-03 0.0000e+00
1.4976e-03 2.9993e-03 0.0000e+00
1.6478e-03 3.0023e-03 0.0000e+00
1.7974e-03 3.0050e-03 0.0000e+00
1.9467e-03 3.0075e-03 0.0000e+00
2.0954e-03 3.0097e-03 0.0000e+00
2.2439e-03 3.0117e-03 0.0000e+00
2.3919e-03 3.0136e-03 0.0000e+00
2.5398e-03 3.0154e-03 0.0000e+00
2.6946e-03 3.0244e-03 0.0000e+00
2.8420e-03 3.0261e-03 0.0000e+00
2.9709e-03 3.0095e-03 0.0000e+00
3.1307e-03 3.0221e-03 0.0000e+00
3.2737e-03 3.0206e-03 0.0000e+00
1.4763e-04 3.1272e-03 0.0000e+00
2.9527e-04 3.1272e-03 0.0000e+00
4.4298e-04 3.1274e-03 0.0000e+00
5.9085e-04 3.1277e-03 0.0000e+00
7.3916e-04 3.1283e-03 0.0000e+00
8.8845e-04 3.1295e-03 0.0000e+00
1.0388e-03 3.1312e-03 0.0000e+00
1.1900e-03 3.1339e-03 0.0000e+00
1.3412e-03 3.1371e-03 0.0000e+00
1.4924e-03 3.1404e-03 0.0000e+00
1.6432e-03 3.1436e-03 0.0000e+00
1.7937e-03 3.1468e-03 0.0000e+00
1.9436e-03 3.1497e-03 0.0000e+00
2.0929e-03 3.1525e-03 0.0000e+00
2.2417e-03 3.1550e-03 0.0000e+00
2.3901e-03 3.1573e-03 0.0000e+00
2.5454e-03 3.1668e-03 0.0000e+00
2.6931e-03 3.1689e-03 0.0000e+00
2.8223e-03 3.1526e-03 0.0000e+00
2.9805e-03 3.1655e-03 0.0000e+00
3.1357e-03 3.1676e-03 0.0000e+00
1.4748e-04 3.2733e-03 0.0000e+00
2.9494e-04 3.2733e-03 0.0000e+00
4.4243e-04 3.2734e-03 0.0000e+00
5.8994e-04 3.2735e-03 0.0000e+00
7.3757e-04 3.2737e-03 0.0000e+00
8.8544e-04 3.2739e-03 0.0000e+00
1.0338e-03 3.2746e-03 0.0000e+00
1.1833e-03 3.2759e-03 0.0000e+00
1.3343e-03 3.2783e-03 0.0000e+00
1.4858e-03 3.2813e-03 0.0000e+00
1.6374e-03 3.2847e-03 0.0000e+00
1.7886e-03 3.2880e-03 0.0000e+00
1.9395e-03 3.2916e-03 0.0000e+00
2.0896e-03 3.2949e-03 0.0000e+00
2.2391e-03 3.2980e-03 0.0000e+00
2.3916e-03 3.3045e-03 0.0000e+00
2.5435e-03 3.3144e-03 0.0000e+00
2.6731e-03 3.2950e-03 0.0000e+00
2.8316e-03 3.3083e-03 0.0000e+00
2.9789e-03 3.3106e-03 0.0000e+00
3.1295e-03 3.3129e-03 0.0000e+00
1.4738e-04 3.4196e-03 0.0000e+00
2.9476e-04 3.4196e-03 0.0000e+00
4.4215e-04 3.4197e-03 0.0000e+00
5.8957e-04 3.4198e-03 0.0000e+00
7.3703e-04 3.4198e-03 0.0000e+00
8.8451e-04 3.4198e-03 0.0000e+00
1.0320e-03 3.4200e-03 0.0000e+00
1.1799e-03 3.4203e-03 0.0000e+00
1.3284e-03 3.4211e-03 0.0000e+00
1.4786e-03 3.4229e-03 0.0000e+00
1.6301e-03 3.4256e-03 0.0000e+00
1.7820e-03 3.4291e-03 0.0000e+00
1.9336e-03 3.4326e-03 0.0000e+00
2.0850e-03 3.4366e-03 0.0000e+00
2.2355e-03 3.4404e-03 0.0000e+00
2.3806e-03 3.4439e-03 0.0000e+00
2.5228e-03 3.4472e-03 0.0000e+00
2.6821e-03 3.4503e-03 0.0000e+00
2.8298e-03 3.4530e-03 0.0000e+00
2.9741e-03 3.4526e-03 0.0000e+00
3.1077e-03 3.4870e-03 0.0000e+00
1.4733e-04 3.5661e-03 0.0000e+00
2.9465e-04 3.5661e-03 0.0000e+00
4.4199e-04 3.5661e-03 0.0000e+00
5.8935e-04 3.5661e-03 0.0000e+00
7.3671e-04 3.5662e-03 0.0000e+00
8.8407e-04 3.5662e-03 0.0000e+00
1.0314e-03 3.5663e-03 0.0000e+00
1.1788e-03 3.5663e-03 0.0000e+00
1.3264e-03 3.5664e-03 0.0000e+00
1.4743e-03 3.5668e-03 0.0000e+00
1.6233e-03 3.5680e-03 0.0000e+00
1.7742e-03 3.5703e-03 0.0000e+00
1.9262e-03 3.5736e-03 0.0000e+00
2.0784e-03 3.5774e-03 0.0000e+00
2.2305e-03 3.5819e-03 0.0000e+00
2.3853e-03 3.5830e-03 0.0000e+00
2.5391e-03 3.5802e-03 0.0000e+00
2.6686e-03 3.6051e-03 0.0000e+00
2.8278e-03 3.5978e-03 0.0000e+00
2.9907e-03 3.6011e-03 0.0000e+00
1.4729e-04 3.7126e-03 0.0000e+00
2.9459e-04 3.7126e-03 0.0000e+00
4.4189e-04 3.7127e-03 0.0000e+00
5.8919e-04 3.7127e-03 0.0000e+00
7.3649e-04 3.7127e-03 0.0000e+00
8.8379e-04 3.7127e-03 0.0000e+00
1.0311e-03 3.7128e-03 0.0000e+00
1.1784e-03 3.7128e-03 0.0000e+00
1.3258e-03 3.7128e-03 0.0000e+00
1.4731e-03 3.7128e-03 0.0000e+00
1.6206e-03 3.7129e-03 0.0000e+00
1.7688e-03 3.7136e-03 0.0000e+00
1.9186e-03 3.7153e-03 0.0000e+00
2.0703e-03 3.7182e-03 0.0000e+00
2.2230e-03 3.7221e-03 0.0000e+00
2.3760e-03 3.7275e-03 0.0000e+00
2.5351e-03 3.7263e-03 0.0000e+00
2.6851e-03 3.7314e-03 0.0000e+00
2.8167e-03 3.7568e-03 0.0000e+00
2.9732e-03 3.7490e-03 0.0000e+00
1.4727e-04 3.8592e-03 0.0000e+00
2.9454e-04 3.8593e-03 0.0000e+00
4.4181e-04 3.8593e-03 0.0000e+00
5.8907e-04 3.8593e-03 0.0000e+00
7.3633e-04 3.8593e-03 0.0000e+00
8.8360e-04 3.8593e-03 0.0000e+00
1.0309e-03 3.8594e-03 0.0000e+00
1.1782e-03 3.8594e-03 0.0000e+00
1.3255e-03 3.8594e-03 0.0000e+00
1.4727e-03 3.8594e-03 0.0000e+00
1.6200e-03 3.8594e-03 0.0000e+00
1.7673e-03 3.8593e-03 0.0000e+00
1.9149e-03 3.8596e-03 0.0000e+00
2.0637e-03 3.8606e-03 0.0000e+00
2.2146e-03 3.8629e-03 0.0000e+00
2.3674e-03 3.8670e-03 0.0000e+00
2.5216e-03 3.8737e-03 0.0000e+00
2.6837e-03 3.8778e-03 0.0000e+00
2.8386e-03 3.8906e-03 0.0000e+00
2.9556e-03 3.8910e-03 0.0000e+00
1.4725e-04 4.0068e-03 0.0000e+00
2.9449e-04 4.0069e-03 0.0000e+00
4.4173e-04 4.0069e-03 0.0000e+00
5.8897e-04 4.0069e-03 0.0000e+00
7.3621e-04 4.0069e-03 0.0000e+00
8.8346e-04 4.0069e-03 0.0000e+00
1.0307e-03 4.0070e-03 0.0000e+00
1.1780e-03 4.0070e-03 0.0000e+00
1.3252e-03 4.0070e-03 0.0000e+00
1.4725e-03 4.0070e-03 0.0000e+00
1.6197e-03 4.0070e-03 0.0000e+00
1.7670e-03 4.0069e-03 0.0000e+00
1.9142e-03 4.0069e-03 0.0000e+00
2.0615e-03 4.0069e-03 0.0000e+00
2.2093e-03 4.0074e-03 0.0000e+00
2.3589e-03 4.0092e-03 0.0000e+00
2.5117e-03 4.0129e-03 0.0000e+00
2.6630e-03 4.0213e-03 0.0000e+00
2.8157e-03 4.0274e-03 0.0000e+00
2.9655e-03 4.0334e-03 0.0000e+00
1.4722e-04 4.1573e-03 0.0000e+00
2.9443e-04 4.1583e-03 0.0000e+00
4.4165e-04 4.1583e-03 0.0000e+00
5.8887e-04 4.1583e-03 0.0000e+00
7.3610e-04 4.1583e-03 0.0000e+00
8.8334e-04 4.1584e-03 0.0000e+00
1.0306e-03 4.1584e-03 0.0000e+00
1.1778e-03 4.1584e-03 0.0000e+00
1.3251e-03 4.1584e-03 0.0000e+00
1.4723e-03 4.1584e-03 0.0000e+00
1.6195e-03 4.1584e-03 0.0000e+00
1.7668e-03 4.1584e-03 0.0000e+00
1.9140e-03 4.1584e-03 0.0000e+00