# vtk DataFile Version 3.0
VTK Example
ASCII
DATASET UNSTRUCTURED_GRID
POINTS 420 float 
0 -5.096e-07 0.0
0.00274328 -5.30513e-06 0.0
0.00274316 0.00465201 0.0
0 0.00464934 0.0
0.000222226 -1.81298e-06 0.0
0.000455247 -1.96309e-06 0.0
0.000684459 -1.95047e-06 0.0
0.000915294 -2.10767e-06 0.0
0.0011478 -2.20249e-06 0.0
0.00138193 -2.33797e-06 0.0
0.00161591 -2.35874e-06 0.0
0.00184962 -2.60375e-06 0.0
0.00208927 -2.71862e-06 0.0
0.00232992 -2.27289e-06 0.0
0.00287597 3.09111e-05 0.0
0.00290971 0.000139479 0.0
0.00295617 0.000286136 0.0
0.00300046 0.000438245 0.0
0.00304763 0.000595982 0.0
0.00309344 0.000755125 0.0
0.0031376 0.000916351 0.0
0.00317846 0.00107808 0.0
0.00321587 0.00124172 0.0
0.00324894 0.00140632 0.0
0.00327723 0.00157182 0.0
0.00330033 0.00173803 0.0
0.00331793 0.00190483 0.0
0.0033298 0.00207204 0.0
0.00333579 0.00223951 0.0
0.00333583 0.00240707 0.0
0.00332992 0.00257456 0.0
0.00331813 0.00274179 0.0
0.0033006 0.00290863 0.0
0.00327756 0.00307489 0.0
0.00324929 0.00324045 0.0
0.00321623 0.00340512 0.0
0.00317879 0.00356883 0.0
0.00313788 0.00373061 0.0
0.00309366 0.00389187 0.0
0.00304778 0.00405103 0.0
0.0030006 0.00420857 0.0
0.00295625 0.00436071 0.0
0.00290973 0.00450738 0.0
0.00287599 0.00461588 0.0
0.00232966 0.00464897 0.0
0.00208899 0.00464941 0.0
0.00184934 0.0046493 0.0
0.00161564 0.00464905 0.0
0.00138168 0.00464903 0.0
0.0011475 0.0046489 0.0
0.000914838 0.0046488 0.0
0.000683826 0.00464863 0.0
0.000454887 0.0046486 0.0
0.000227218 0.00464839 0.0
0 0.00440955 0.0
0 0.00417749 0.0
0 0.0039537 0.0
0 0.00374 0.0
0 0.00354061 0.0
0 0.00336267 0.0
0 0.00320557 0.0
0 0.00306942 0.0
0 0.00294721 0.0
0 0.00283686 0.0
0 0.00273455 0.0
0 0.00263813 0.0
0 0.00254569 0.0
0 0.00245587 0.0
0 0.0023675 0.0
0 0.0022796 0.0
0 0.00219123 0.0
0 0.00210139 0.0
0 0.00200892 0.0
0 0.00191246 0.0
0 0.00181009 0.0
0 0.00169967 0.0
0 0.00157735 0.0
0 0.00144107 0.0
0 0.00128382 0.0
0 0.00110567 0.0
0 0.000905492 0.0
0 0.000690291 0.0
0 0.000463536 0.0
0 0.000222397 0.0
0.000227262 0.000231856 0.0
0.000232733 0.00046351 0.0
0.000237248 0.00068927 0.0
0.000244505 0.000904534 0.0
0.000256323 0.001103 0.0
0.000272714 0.00128119 0.0
0.000291812 0.0014361 0.0
0.000310457 0.00157201 0.0
0.000327251 0.00169256 0.0
0.000340898 0.00180262 0.0
0.000351588 0.00190494 0.0
0.000359478 0.0020022 0.0
0.000364995 0.00209607 0.0
0.000368468 0.00218784 0.0
0.000370148 0.00227845 0.0
0.000370159 0.00236869 0.0
0.0003685 0.00245928 0.0
0.000365047 0.00255103 0.0
0.000359549 0.00264487 0.0
0.000351676 0.00274208 0.0
0.000341004 0.00284434 0.0
0.000327375 0.00295432 0.0
0.000310597 0.00307477 0.0
0.000291963 0.00321053 0.0
0.000272871 0.00336525 0.0
0.000256522 0.00354315 0.0
0.000244978 0.00374084 0.0
0.00023833 0.00395494 0.0
0.000234243 0.0041788 0.0
0.000230252 0.00441024 0.0
0.000461304 0.000234147 0.0
0.000467076 0.000463587 0.0
0.000475367 0.000686792 0.0
0.000490669 0.00089835 0.0
0.000515024 0.00109299 0.0
0.000547957 0.00126426 0.0
0.000584946 0.00141505 0.0
0.000621072 0.00154644 0.0
0.000652231 0.00166622 0.0
0.000677393 0.00177691 0.0
0.000696436 0.00188197 0.0
0.000710255 0.00198321 0.0
0.000719727 0.00208199 0.0
0.000725635 0.0021792 0.0
0.000728478 0.00227554 0.0
0.000728501 0.0023716 0.0
0.000725703 0.00246793 0.0
0.000719837 0.00256512 0.0
0.000710404 0.00266387 0.0
0.000696622 0.00276506 0.0
0.000677614 0.00287005 0.0
0.000652487 0.00298066 0.0
0.000621366 0.00310033 0.0
0.000585283 0.00323157 0.0
0.000548352 0.00338214 0.0
0.000515531 0.00355307 0.0
0.000491519 0.00374694 0.0
0.000476836 0.00395798 0.0
0.000468482 0.00418117 0.0
0.000461666 0.00441136 0.0
0.000694198 0.000233109 0.0
0.000703015 0.000462061 0.0
0.000716225 0.000682209 0.0
0.000741447 0.000888585 0.0
0.000780198 0.00107384 0.0
0.000829112 0.00123733 0.0
0.000882016 0.00137954 0.0
0.000930565 0.00150785 0.0
0.000971941 0.00162686 0.0
0.00100434 0.00174044 0.0
0.00102877 0.0018503 0.0
0.00104647 0.00195772 0.0
0.00105869 0.00206341 0.0
0.00106635 0.00216793 0.0
0.00107006 0.00227176 0.0
0.00107009 0.00237538 0.0
0.00106645 0.0024792 0.0
0.00105886 0.0025837 0.0
0.0010467 0.00268934 0.0
0.00102905 0.00279672 0.0
0.00100468 0.00290651 0.0
0.00097234 0.00302 0.0
0.000931032 0.0031389 0.0
0.000882566 0.00326707 0.0
0.000829766 0.00340906 0.0
0.000780975 0.00357227 0.0
0.000742447 0.003757 0.0
0.000717263 0.00396348 0.0
0.000703542 0.00418413 0.0
0.000693908 0.00441339 0.0
0.000927226 0.000231011 0.0
0.000939523 0.000458473 0.0
0.000961207 0.000675065 0.0
0.000999732 0.000872087 0.0
0.00105409 0.00104713 0.0
0.00111837 0.00119829 0.0
0.00118166 0.00133454 0.0
0.00123782 0.00145981 0.0
0.0012836 0.00158101 0.0
0.00131958 0.00169919 0.0
0.0013469 0.00181543 0.0
0.00136709 0.00193005 0.0
0.00138127 0.00204342 0.0
0.0013903 0.00215586 0.0
0.0013947 0.00226772 0.0
0.00139475 0.0023794 0.0
0.00139043 0.00249125 0.0
0.00138148 0.00260366 0.0
0.00136738 0.002717 0.0
0.00134728 0.00283157 0.0
0.00132004 0.00294775 0.0
0.00128414 0.00306584 0.0
0.00123844 0.00318695 0.0
0.00118237 0.0033121 0.0
0.00111918 0.00344821 0.0
0.00105494 0.0035992 0.0
0.00100054 0.00377393 0.0
0.000961659 0.00397113 0.0
0.00093957 0.00418805 0.0
0.000926951 0.00441563 0.0
0.00116059 0.000228843 0.0
0.00117795 0.000453584 0.0
0.00121219 0.000662366 0.0
0.00126723 0.000848515 0.0
0.00133868 0.00100835 0.0
0.00141313 0.00115044 0.0
0.00148196 0.00128098 0.0
0.0015389 0.0014076 0.0
0.00158548 0.00153292 0.0
0.00162243 0.00165722 0.0
0.00165128 0.00178037 0.0
0.00167308 0.00190244 0.0
0.00168874 0.00202353 0.0
0.00169887 0.00214386 0.0
0.00170387 0.0022637 0.0
0.00170392 0.00238338 0.0
0.00169903 0.00250321 0.0
0.001689 0.00262352 0.0
0.00167343 0.00274458 0.0
0.00165172 0.00286661 0.0
0.00162296 0.00298971 0.0
0.0015861 0.00311395 0.0
0.00153959 0.00323919 0.0
0.00148273 0.00336574 0.0
0.00141394 0.00349619 0.0
0.00133942 0.00363821 0.0
0.00126778 0.00379778 0.0
0.00121236 0.00398401 0.0
0.00117784 0.00419294 0.0
0.00116034 0.00441775 0.0
0.00139695 0.000227235 0.0
0.00142302 0.000445805 0.0
0.00147445 0.000643478 0.0
0.00154954 0.000811719 0.0
0.00163354 0.000958671 0.0
0.00171308 0.00109184 0.0
0.00177912 0.00122309 0.0
0.00183387 0.00135362 0.0
0.00187899 0.00148488 0.0
0.00191594 0.00161573 0.0
0.0019455 0.00174593 0.0
0.00196844 0.00187533 0.0
0.00198521 0.002004 0.0
0.0019962 0.00213206 0.0
0.00200167 0.00225974 0.0
0.00200173 0.00238729 0.0
0.00199637 0.00251497 0.0
0.00198549 0.00264301 0.0
0.00196883 0.00277166 0.0
0.00194599 0.00290103 0.0
0.00191651 0.00303119 0.0
0.00187964 0.003162 0.0
0.00183459 0.00329321 0.0
0.00177987 0.00342369 0.0
0.00171379 0.00355491 0.0
0.00163412 0.00368802 0.0
0.00154996 0.00383473 0.0
0.00147455 0.00400297 0.0
0.00142288 0.00420071 0.0
0.00139669 0.00441931 0.0
0.0016347 0.000224052 0.0
0.00167725 0.000433591 0.0
0.00175163 0.000611256 0.0
0.00184389 0.000761614 0.0
0.00193376 0.000894862 0.0
0.00200675 0.00102813 0.0
0.00206773 0.00116364 0.0
0.00211863 0.00130018 0.0
0.00216212 0.00143775 0.0
0.00219856 0.00157522 0.0
0.00222848 0.00171227 0.0
0.00225208 0.00184881 0.0
0.00226961 0.00198485 0.0
0.00228121 0.00212048 0.0
0.00228701 0.00225585 0.0
0.00228707 0.00239112 0.0
0.00228139 0.00252649 0.0
0.00226991 0.00266211 0.0
0.00225248 0.00279814 0.0
0.00222898 0.00293466 0.0
0.00219914 0.00307169 0.0
0.00216277 0.00320914 0.0
0.00211932 0.00334668 0.0
0.00206841 0.00348319 0.0
0.00200735 0.00361868 0.0
0.00193422 0.0037519 0.0
0.00184425 0.00388492 0.0
0.00175173 0.00403527 0.0
0.00167713 0.00421296 0.0
0.00163444 0.0044225 0.0
0.00188025 0.000217745 0.0
0.00194819 0.000407259 0.0
0.00204852 0.000560875 0.0
0.00214926 0.000690031 0.0
0.00222753 0.000822905 0.0
0.00229218 0.000961744 0.0
0.00234703 0.00110386 0.0
0.00239495 0.00124683 0.0
0.00243676 0.00139081 0.0
0.00247265 0.00153482 0.0
0.00250255 0.00167867 0.0
0.00252647 0.00182229 0.0
0.00254441 0.00196568 0.0
0.00255637 0.00210887 0.0
0.00256237 0.00225194 0.0
0.00256243 0.00239496 0.0
0.00255654 0.00253802 0.0
0.0025447 0.00268122 0.0
0.00252687 0.00282461 0.0
0.00250304 0.00296823 0.0
0.00247322 0.00311207 0.0
0.00243738 0.00325607 0.0
0.00239558 0.00340004 0.0
0.00234763 0.003543 0.0
0.00229269 0.0036851 0.0
0.0022279 0.00382391 0.0
0.00214957 0.00395657 0.0
0.00204863 0.00408572 0.0
0.00194808 0.00423935 0.0
0.00188001 0.00442884 0.0
0.00214019 0.000200681 0.0
0.00224963 0.000357949 0.0
0.00236398 0.000477172 0.0
0.002445 0.000606007 0.0
0.00251074 0.000747659 0.0
0.00256701 0.000894293 0.0
0.00261779 0.0010434 0.0
0.00266311 0.00119269 0.0
0.0027036 0.00134309 0.0
0.00273873 0.00149369 0.0
0.00276836 0.00164445 0.0
0.00279226 0.00179527 0.0
0.0028103 0.00194615 0.0
0.00282239 0.00209704 0.0
0.00282848 0.00224795 0.0
0.00282853 0.00239886 0.0
0.00282256 0.00254977 0.0
0.00281057 0.00270067 0.0
0.00279263 0.00285156 0.0
0.00276882 0.0030024 0.0
0.00273926 0.00315317 0.0
0.00270416 0.00330379 0.0
0.00266366 0.0034542 0.0
0.00261829 0.00360349 0.0
0.00256743 0.00375259 0.0
0.00251104 0.00389921 0.0
0.00244525 0.00404065 0.0
0.00236408 0.00416949 0.0
0.00224955 0.0042887 0.0
0.00213999 0.00444594 0.0
0.00245754 0.000159641 0.0
0.00259011 0.000256259 0.0
0.00266676 0.000376594 0.0
0.00272866 0.000520529 0.0
0.0027832 0.000671407 0.0
0.00283435 0.000825661 0.0
0.00288166 0.000980928 0.0
0.00292495 0.00113657 0.0
0.00296397 0.00129345 0.0
0.00299822 0.00145092 0.0
0.0030273 0.00160886 0.0
0.00305091 0.00176721 0.0
0.00306882 0.00192587 0.0
0.00308086 0.00208477 0.0
0.00308693 0.00224381 0.0
0.00308698 0.0024029 0.0
0.00308101 0.00256194 0.0
0.00306906 0.00272086 0.0
0.00305124 0.00287955 0.0
0.0030277 0.00303793 0.0
0.00299868 0.0031959 0.0
0.00296444 0.00335342 0.0
0.0029254 0.00351033 0.0
0.00288206 0.003666 0.0
0.00283467 0.00382128 0.0
0.00278342 0.00397553 0.0
0.00272885 0.0041262 0.0
0.00266684 0.00427016 0.0
0.00259007 0.00439048 0.0
0.0024574 0.00448701 0.0
0 0 0
0.004 0 0
0.0002353 0 0
0.0004706 0 0
0.0007059 0 0
0.0009412 0 0
0.001176 0 0
0.001412 0 0
0.001647 0 0
0.001882 0 0
0.002118 0 0
0.002353 0 0
0.002588 0 0
0.002824 0 0
0.003059 0 0
0.003294 0 0
0.003529 0 0
0.003765 0 0
0 0.00464741 0
0.004 0.00464741 0
0.0002353 0.00464741 0
0.0004706 0.00464741 0
0.0007059 0.00464741 0
0.0009412 0.00464741 0
0.001176 0.00464741 0
0.001412 0.00464741 0
0.001647 0.00464741 0
0.001882 0.00464741 0
0.002118 0.00464741 0
0.002353 0.00464741 0
0.002588 0.00464741 0
0.002824 0.00464741 0
0.003059 0.00464741 0
0.003294 0.00464741 0
0.003529 0.00464741 0
0.003765 0.00464741 0
CELLS 375 1807
4 0 4 84 83 
4 83 84 85 82 
4 82 85 86 81 
4 81 86 87 80 
4 80 87 88 79 
4 79 88 89 78 
4 78 89 90 77 
4 77 90 91 76 
4 76 91 92 75 
4 75 92 93 74 
4 74 93 94 73 
4 73 94 95 72 
4 72 95 96 71 
4 71 96 97 70 
4 70 97 98 69 
4 69 98 99 68 
4 68 99 100 67 
4 67 100 101 66 
4 66 101 102 65 
4 65 102 103 64 
4 64 103 104 63 
4 63 104 105 62 
4 62 105 106 61 
4 61 106 107 60 
4 60 107 108 59 
4 59 108 109 58 
4 58 109 110 57 
4 57 110 111 56 
4 56 111 112 55 
4 55 112 113 54 
4 54 113 53 3 
4 4 5 114 84 
4 84 114 115 85 
4 85 115 116 86 
4 86 116 117 87 
4 87 117 118 88 
4 88 118 119 89 
4 89 119 120 90 
4 90 120 121 91 
4 91 121 122 92 
4 92 122 123 93 
4 93 123 124 94 
4 94 124 125 95 
4 95 125 126 96 
4 96 126 127 97 
4 97 127 128 98 
4 98 128 129 99 
4 99 129 130 100 
4 100 130 131 101 
4 101 131 132 102 
4 102 132 133 103 
4 103 133 134 104 
4 104 134 135 105 
4 105 135 136 106 
4 106 136 137 107 
4 107 137 138 108 
4 108 138 139 109 
4 109 139 140 110 
4 110 140 141 111 
4 111 141 142 112 
4 112 142 143 113 
4 113 143 52 53 
4 5 6 144 114 
4 114 144 145 115 
4 115 145 146 116 
4 116 146 147 117 
4 117 147 148 118 
4 118 148 149 119 
4 119 149 150 120 
4 120 150 151 121 
4 121 151 152 122 
4 122 152 153 123 
4 123 153 154 124 
4 124 154 155 125 
4 125 155 156 126 
4 126 156 157 127 
4 127 157 158 128 
4 128 158 159 129 
4 129 159 160 130 
4 130 160 161 131 
4 131 161 162 132 
4 132 162 163 133 
4 133 163 164 134 
4 134 164 165 135 
4 135 165 166 136 
4 136 166 167 137 
4 137 167 168 138 
4 138 168 169 139 
4 139 169 170 140 
4 140 170 171 141 
4 141 171 172 142 
4 142 172 173 143 
4 143 173 51 52 
4 6 7 174 144 
4 144 174 175 145 
4 145 175 176 146 
4 146 176 177 147 
4 147 177 178 148 
4 148 178 179 149 
4 149 179 180 150 
4 150 180 181 151 
4 151 181 182 152 
4 152 182 183 153 
4 153 183 184 154 
4 154 184 185 155 
4 155 185 186 156 
4 156 186 187 157 
4 157 187 188 158 
4 158 188 189 159 
4 159 189 190 160 
4 160 190 191 161 
4 161 191 192 162 
4 162 192 193 163 
4 163 193 194 164 
4 164 194 195 165 
4 165 195 196 166 
4 166 196 197 167 
4 167 197 198 168 
4 168 198 199 169 
4 169 199 200 170 
4 170 200 201 171 
4 171 201 202 172 
4 172 202 203 173 
4 173 203 50 51 
4 7 8 204 174 
4 174 204 205 175 
4 175 205 206 176 
4 176 206 207 177 
4 177 207 208 178 
4 178 208 209 179 
4 179 209 210 180 
4 180 210 211 181 
4 181 211 212 182 
4 182 212 213 183 
4 183 213 214 184 
4 184 214 215 185 
4 185 215 216 186 
4 186 216 217 187 
4 187 217 218 188 
4 188 218 219 189 
4 189 219 220 190 
4 190 220 221 191 
4 191 221 222 192 
4 192 222 223 193 
4 193 223 224 194 
4 194 224 225 195 
4 195 225 226 196 
4 196 226 227 197 
4 197 227 228 198 
4 198 228 229 199 
4 199 229 230 200 
4 200 230 231 201 
4 201 231 232 202 
4 202 232 233 203 
4 203 233 49 50 
4 8 9 234 204 
4 204 234 235 205 
4 205 235 236 206 
4 206 236 237 207 
4 207 237 238 208 
4 208 238 239 209 
4 209 239 240 210 
4 210 240 241 211 
4 211 241 242 212 
4 212 242 243 213 
4 213 243 244 214 
4 214 244 245 215 
4 215 245 246 216 
4 216 246 247 217 
4 217 247 248 218 
4 218 248 249 219 
4 219 249 250 220 
4 220 250 251 221 
4 221 251 252 222 
4 222 252 253 223 
4 223 253 254 224 
4 224 254 255 225 
4 225 255 256 226 
4 226 256 257 227 
4 227 257 258 228 
4 228 258 259 229 
4 229 259 260 230 
4 230 260 261 231 
4 231 261 262 232 
4 232 262 263 233 
4 233 263 48 49 
4 9 10 264 234 
4 234 264 265 235 
4 235 265 266 236 
4 236 266 267 237 
4 237 267 268 238 
4 238 268 269 239 
4 239 269 270 240 
4 240 270 271 241 
4 241 271 272 242 
4 242 272 273 243 
4 243 273 274 244 
4 244 274 275 245 
4 245 275 276 246 
4 246 276 277 247 
4 247 277 278 248 
4 248 278 279 249 
4 249 279 280 250 
4 250 280 281 251 
4 251 281 282 252 
4 252 282 283 253 
4 253 283 284 254 
4 254 284 285 255 
4 255 285 286 256 
4 256 286 287 257 
4 257 287 288 258 
4 258 288 289 259 
4 259 289 290 260 
4 260 290 291 261 
4 261 291 292 262 
4 262 292 293 263 
4 263 293 47 48 
4 10 11 294 264 
4 264 294 295 265 
4 265 295 296 266 
4 266 296 297 267 
4 267 297 298 268 
4 268 298 299 269 
4 269 299 300 270 
4 270 300 301 271 
4 271 301 302 272 
4 272 302 303 273 
4 273 303 304 274 
4 274 304 305 275 
4 275 305 306 276 
4 276 306 307 277 
4 277 307 308 278 
4 278 308 309 279 
4 279 309 310 280 
4 280 310 311 281 
4 281 311 312 282 
4 282 312 313 283 
4 283 313 314 284 
4 284 314 315 285 
4 285 315 316 286 
4 286 316 317 287 
4 287 317 318 288 
4 288 318 319 289 
4 289 319 320 290 
4 290 320 321 291 
4 291 321 322 292 
4 292 322 323 293 
4 293 323 46 47 
4 11 12 324 294 
4 294 324 325 295 
4 295 325 326 296 
4 296 326 327 297 
4 297 327 328 298 
4 298 328 329 299 
4 299 329 330 300 
4 300 330 331 301 
4 301 331 332 302 
4 302 332 333 303 
4 303 333 334 304 
4 304 334 335 305 
4 305 335 336 306 
4 306 336 337 307 
4 307 337 338 308 
4 308 338 339 309 
4 309 339 340 310 
4 310 340 341 311 
4 311 341 342 312 
4 312 342 343 313 
4 313 343 344 314 
4 314 344 345 315 
4 315 345 346 316 
4 316 346 347 317 
4 317 347 348 318 
4 318 348 349 319 
4 319 349 350 320 
4 320 350 351 321 
4 321 351 352 322 
4 322 352 353 323 
4 323 353 45 46 
4 12 13 354 324 
4 324 354 355 325 
4 325 355 356 326 
4 326 356 357 327 
4 327 357 358 328 
4 328 358 359 329 
4 329 359 360 330 
4 330 360 361 331 
4 331 361 362 332 
4 332 362 363 333 
4 333 363 364 334 
4 334 364 365 335 
4 335 365 366 336 
4 336 366 367 337 
4 337 367 368 338 
4 338 368 369 339 
4 339 369 370 340 
4 340 370 371 341 
4 341 371 372 342 
4 342 372 373 343 
4 343 373 374 344 
4 344 374 375 345 
4 345 375 376 346 
4 346 376 377 347 
4 347 377 378 348 
4 348 378 379 349 
4 349 379 380 350 
4 350 380 381 351 
4 351 381 382 352 
4 352 382 383 353 
4 353 383 44 45 
4 13 1 14 354 
4 354 14 15 355 
4 355 15 16 356 
4 356 16 17 357 
4 357 17 18 358 
4 358 18 19 359 
4 359 19 20 360 
4 360 20 21 361 
4 361 21 22 362 
4 362 22 23 363 
4 363 23 24 364 
4 364 24 25 365 
4 365 25 26 366 
4 366 26 27 367 
4 367 27 28 368 
4 368 28 29 369 
4 369 29 30 370 
4 370 30 31 371 
4 371 31 32 372 
4 372 32 33 373 
4 373 33 34 374 
4 374 34 35 375 
4 375 35 36 376 
4 376 36 37 377 
4 377 37 38 378 
4 378 38 39 379 
4 379 39 40 380 
4 380 40 41 381 
4 381 41 42 382 
4 382 42 43 383 
4 383 43 2 44 
2 384 386 
2 386 387 
2 387 388 
2 388 389 
2 389 390 
2 390 391 
2 391 392 
2 392 393 
2 393 394 
2 394 395 
2 395 396 
2 396 397 
2 397 398 
2 398 399 
2 399 400 
2 400 401 
2 401 385 
2 404 402 
2 405 404 
2 406 405 
2 407 406 
2 408 407 
2 409 408 
2 410 409 
2 411 410 
2 412 411 
2 413 412 
2 414 413 
2 415 414 
2 416 415 
2 417 416 
2 418 417 
2 419 418 
2 403 419 
CELL_TYPES 375
9 
9 
9 
9 
9 
9 
9 
9 
9 
9 
9 
9 
9 
9 
9 
9 
9 
9 
9 
9 
9 
9 
9 
9 
9 
9 
9 
9 
9 
9 
9 
9 
9 
9 
9 
9 
9 
9 
9 
9 
9 
9 
9 
9 
9 
9 
9 
9 
9 
9 
9 
9 
9 
9 
9 
9 
9 
9 
9 
9 
9 
9 
9 
9 
9 
9 
9 
9 
9 
9 
9 
9 
9 
9 
9 
9 
9 
9 
9 
9 
9 
9 
9 
9 
9 
9 
9 
9 
9 
9 
9 
9 
9 
9 
9 
9 
9 
9 
9 
9 
9 
9 
9 
9 
9 
9 
9 
9 
9 
9 
9 
9 
9 
9 
9 
9 
9 
9 
9 
9 
9 
9 
9 
9 
9 
9 
9 
9 
9 
9 
9 
9 
9 
9 
9 
9 
9 
9 
9 
9 
9 
9 
9 
9 
9 
9 
9 
9 
9 
9 
9 
9 
9 
9 
9 
9 
9 
9 
9 
9 
9 
9 
9 
9 
9 
9 
9 
9 
9 
9 
9 
9 
9 
9 
9 
9 
9 
9 
9 
9 
9 
9 
9 
9 
9 
9 
9 
9 
9 
9 
9 
9 
9 
9 
9 
9 
9 
9 
9 
9 
9 
9 
9 
9 
9 
9 
9 
9 
9 
9 
9 
9 
9 
9 
9 
9 
9 
9 
9 
9 
9 
9 
9 
9 
9 
9 
9 
9 
9 
9 
9 
9 
9 
9 
9 
9 
9 
9 
9 
9 
9 
9 
9 
9 
9 
9 
9 
9 
9 
9 
9 
9 
9 
9 
9 
9 
9 
9 
9 
9 
9 
9 
9 
9 
9 
9 
9 
9 
9 
9 
9 
9 
9 
9 
9 
9 
9 
9 
9 
9 
9 
9 
9 
9 
9 
9 
9 
9 
9 
9 
9 
9 
9 
9 
9 
9 
9 
9 
9 
9 
9 
9 
9 
9 
9 
9 
9 
9 
9 
9 
9 
9 
9 
9 
9 
9 
9 
9 
9 
9 
9 
9 
9 
9 
9 
9 
9 
9 
9 
9 
9 
9 
9 
9 
9 
9 
9 
9 
9 
9 
9 
3 
3 
3 
3 
3 
3 
3 
3 
3 
3 
3 
3 
3 
3 
3 
3 
3 
3 
3 
3 
3 
3 
3 
3 
3 
3 
3 
3 
3 
3 
3 
3 
3 
3 
POINT_DATA 420
VECTORS Position float
0.0000e+00 -5.0960e-07 0.0000e+00
2.7433e-03 -5.3051e-06 0.0000e+00
2.7432e-03 4.6520e-03 0.0000e+00
0.0000e+00 4.6493e-03 0.0000e+00
2.2223e-04 -1.8130e-06 0.0000e+00
4.5525e-04 -1.9631e-06 0.0000e+00
6.8446e-04 -1.9505e-06 0.0000e+00
9.1529e-04 -2.1077e-06 0.0000e+00
1.1478e-03 -2.2025e-06 0.0000e+00
1.3819e-03 -2.3380e-06 0.0000e+00
1.6159e-03 -2.3587e-06 0.0000e+00
1.8496e-03 -2.6037e-06 0.0000e+00
2.0893e-03 -2.7186e-06 0.0000e+00
2.3299e-03 -2.2729e-06 0.0000e+00
2.8760e-03 3.0911e-05 0.0000e+00
2.9097e-03 1.3948e-04 0.0000e+00
2.9562e-03 2.8614e-04 0.0000e+00
3.0005e-03 4.3825e-04 0.0000e+00
3.0476e-03 5.9598e-04 0.0000e+00
3.0934e-03 7.5513e-04 0.0000e+00
3.1376e-03 9.1635e-04 0.0000e+00
3.1785e-03 1.0781e-03 0.0000e+00
3.2159e-03 1.2417e-03 0.0000e+00
3.2489e-03 1.4063e-03 0.0000e+00
3.2772e-03 1.5718e-03 0.0000e+00
3.3003e-03 1.7380e-03 0.0000e+00
3.3179e-03 1.9048e-03 0.0000e+00
3.3298e-03 2.0720e-03 0.0000e+00
3.3358e-03 2.2395e-03 0.0000e+00
3.3358e-03 2.4071e-03 0.0000e+00
3.3299e-03 2.5746e-03 0.0000e+00
3.3181e-03 2.7418e-03 0.0000e+00
3.3006e-03 2.9086e-03 0.0000e+00
3.2776e-03 3.0749e-03 0.0000e+00
3.2493e-03 3.2405e-03 0.0000e+00
3.2162e-03 3.4051e-03 0.0000e+00
3.1788e-03 3.5688e-03 0.0000e+00
3.1379e-03 3.7306e-03 0.0000e+00
3.0937e-03 3.8919e-03 0.0000e+00
3.0478e-03 4.0510e-03 0.0000e+00
3.0006e-03 4.2086e-03 0.0000e+00
2.9562e-03 4.3607e-03 0.0000e+00
2.9097e-03 4.5074e-03 0.0000e+00
2.8760e-03 4.6159e-03 0.0000e+00
2.3297e-03 4.6490e-03 0.0000e+00
2.0890e-03 4.6494e-03 0.0000e+00
1.8493e-03 4.6493e-03 0.0000e+00
1.6156e-03 4.6491e-03 0.0000e+00
1.3817e-03 4.6490e-03 0.0000e+00
1.1475e-03 4.6489e-03 0.0000e+00
9.1484e-04 4.6488e-03 0.0000e+00
6.8383e-04 4.6486e-03 0.0000e+00
4.5489e-04 4.6486e-03 0.0000e+00
2.2722e-04 4.6484e-03 0.0000e+00
0.0000e+00 4.4095e-03 0.0000e+00
0.0000e+00 4.1775e-03 0.0000e+00
0.0000e+00 3.9537e-03 0.0000e+00
0.0000e+00 3.7400e-03 0.0000e+00
0.0000e+00 3.5406e-03 0.0000e+00
0.0000e+00 3.3627e-03 0.0000e+00
0.0000e+00 3.2056e-03 0.0000e+00
0.0000e+00 3.0694e-03 0.0000e+00
0.0000e+00 2.9472e-03 0.0000e+00
0.0000e+00 2.8369e-03 0.0000e+00
0.0000e+00 2.7345e-03 0.0000e+00
0.0000e+00 2.6381e-03 0.0000e+00
0.0000e+00 2.5457e-03 0.0000e+00
0.0000e+00 2.4559e-03 0.0000e+00
0.0000e+00 2.3675e-03 0.0000e+00
0.0000e+00 2.2796e-03 0.0000e+00
0.0000e+00 2.1912e-03 0.0000e+00
0.0000e+00 2.1014e-03 0.0000e+00
0.0000e+00 2.0089e-03 0.0000e+00
0.0000e+00 1.9125e-03 0.0000e+00
0.0000e+00 1.8101e-03 0.0000e+00
0.0000e+00 1.6997e-03 0.0000e+00
0.0000e+00 1.5773e-03 0.0000e+00
0.0000e+00 1.4411e-03 0.0000e+00
0.0000e+00 1.2838e-03 0.0000e+00
0.0000e+00 1.1057e-03 0.0000e+00
0.0000e+00 9.0549e-04 0.0000e+00
0.0000e+00 6.9029e-04 0.0000e+00
0.0000e+00 4.6354e-04 0.0000e+00
0.0000e+00 2.2240e-04 0.0000e+00
2.2726e-04 2.3186e-04 0.0000e+00
2.3273e-04 4.6351e-04 0.0000e+00
2.3725e-04 6.8927e-04 0.0000e+00
2.4450e-04 9.0453e-04 0.0000e+00
2.5632e-04 1.1030e-03 0.0000e+00
2.7271e-04 1.2812e-03 0.0000e+00
2.9181e-04 1.4361e-03 0.0000e+00
3.1046e-04 1.5720e-03 0.0000e+00
3.2725e-04 1.6926e-03 0.0000e+00
3.4090e-04 1.8026e-03 0.0000e+00
3.5159e-04 1.9049e-03 0.0000e+00
3.5948e-04 2.0022e-03 0.0000e+00
3.6499e-04 2.0961e-03 0.0000e+00
3.6847e-04 2.1878e-03 0.0000e+00
3.7015e-04 2.2784e-03 0.0000e+00
3.7016e-04 2.3687e-03 0.0000e+00
3.6850e-04 2.4593e-03 0.0000e+00
3.6505e-04 2.5510e-03 0.0000e+00
3.5955e-04 2.6449e-03 0.0000e+00
3.5168e-04 2.7421e-03 0.0000e+00
3.4100e-04 2.8443e-03 0.0000e+00
3.2737e-04 2.9543e-03 0.0000e+00
3.1060e-04 3.0748e-03 0.0000e+00
2.9196e-04 3.2105e-03 0.0000e+00
2.7287e-04 3.3653e-03 0.0000e+00
2.5652e-04 3.5432e-03 0.0000e+00
2.4498e-04 3.7408e-03 0.0000e+00
2.3833e-04 3.9549e-03 0.0000e+00
2.3424e-04 4.1788e-03 0.0000e+00
2.3025e-04 4.4102e-03 0.0000e+00
4.6130e-04 2.3415e-04 0.0000e+00
4.6708e-04 4.6359e-04 0.0000e+00
4.7537e-04 6.8679e-04 0.0000e+00
4.9067e-04 8.9835e-04 0.0000e+00
5.1502e-04 1.0930e-03 0.0000e+00
5.4796e-04 1.2643e-03 0.0000e+00
5.8495e-04 1.4151e-03 0.0000e+00
6.2107e-04 1.5464e-03 0.0000e+00
6.5223e-04 1.6662e-03 0.0000e+00
6.7739e-04 1.7769e-03 0.0000e+00
6.9644e-04 1.8820e-03 0.0000e+00
7.1025e-04 1.9832e-03 0.0000e+00
7.1973e-04 2.0820e-03 0.0000e+00
7.2564e-04 2.1792e-03 0.0000e+00
7.2848e-04 2.2755e-03 0.0000e+00
7.2850e-04 2.3716e-03 0.0000e+00
7.2570e-04 2.4679e-03 0.0000e+00
7.1984e-04 2.5651e-03 0.0000e+00
7.1040e-04 2.6639e-03 0.0000e+00
6.9662e-04 2.7651e-03 0.0000e+00
6.7761e-04 2.8701e-03 0.0000e+00
6.5249e-04 2.9807e-03 0.0000e+00
6.2137e-04 3.1003e-03 0.0000e+00
5.8528e-04 3.2316e-03 0.0000e+00
5.4835e-04 3.3821e-03 0.0000e+00
5.1553e-04 3.5531e-03 0.0000e+00
4.9152e-04 3.7469e-03 0.0000e+00
4.7684e-04 3.9580e-03 0.0000e+00
4.6848e-04 4.1812e-03 0.0000e+00
4.6167e-04 4.4114e-03 0.0000e+00
6.9420e-04 2.3311e-04 0.0000e+00
7.0301e-04 4.6206e-04 0.0000e+00
7.1623e-04 6.8221e-04 0.0000e+00
7.4145e-04 8.8859e-04 0.0000e+00
7.8020e-04 1.0738e-03 0.0000e+00
8.2911e-04 1.2373e-03 0.0000e+00
8.8202e-04 1.3795e-03 0.0000e+00
9.3057e-04 1.5079e-03 0.0000e+00
9.7194e-04 1.6269e-03 0.0000e+00
1.0043e-03 1.7404e-03 0.0000e+00
1.0288e-03 1.8503e-03 0.0000e+00
1.0465e-03 1.9577e-03 0.0000e+00
1.0587e-03 2.0634e-03 0.0000e+00
1.0664e-03 2.1679e-03 0.0000e+00
1.0701e-03 2.2718e-03 0.0000e+00
1.0701e-03 2.3754e-03 0.0000e+00
1.0665e-03 2.4792e-03 0.0000e+00
1.0589e-03 2.5837e-03 0.0000e+00
1.0467e-03 2.6893e-03 0.0000e+00
1.0291e-03 2.7967e-03 0.0000e+00
1.0047e-03 2.9065e-03 0.0000e+00
9.7234e-04 3.0200e-03 0.0000e+00
9.3103e-04 3.1389e-03 0.0000e+00
8.8257e-04 3.2671e-03 0.0000e+00
8.2977e-04 3.4091e-03 0.0000e+00
7.8097e-04 3.5723e-03 0.0000e+00
7.4245e-04 3.7570e-03 0.0000e+00
7.1726e-04 3.9635e-03 0.0000e+00
7.0354e-04 4.1841e-03 0.0000e+00
6.9391e-04 4.4134e-03 0.0000e+00
9.2723e-04 2.3101e-04 0.0000e+00
9.3952e-04 4.5847e-04 0.0000e+00
9.6121e-04 6.7506e-04 0.0000e+00
9.9973e-04 8.7209e-04 0.0000e+00
1.0541e-03 1.0471e-03 0.0000e+00
1.1184e-03 1.1983e-03 0.0000e+00
1.1817e-03 1.3345e-03 0.0000e+00
1.2378e-03 1.4598e-03 0.0000e+00
1.2836e-03 1.5810e-03 0.0000e+00
1.3196e-03 1.6992e-03 0.0000e+00
1.3469e-03 1.8154e-03 0.0000e+00
1.3671e-03 1.9300e-03 0.0000e+00
1.3813e-03 2.0434e-03 0.0000e+00
1.3903e-03 2.1559e-03 0.0000e+00
1.3947e-03 2.2677e-03 0.0000e+00
1.3947e-03 2.3794e-03 0.0000e+00
1.3904e-03 2.4913e-03 0.0000e+00
1.3815e-03 2.6037e-03 0.0000e+00
1.3674e-03 2.7170e-03 0.0000e+00
1.3473e-03 2.8316e-03 0.0000e+00
1.3200e-03 2.9477e-03 0.0000e+00
1.2841e-03 3.0658e-03 0.0000e+00
1.2384e-03 3.1870e-03 0.0000e+00
1.1824e-03 3.3121e-03 0.0000e+00
1.1192e-03 3.4482e-03 0.0000e+00
1.0549e-03 3.5992e-03 0.0000e+00
1.0005e-03 3.7739e-03 0.0000e+00
9.6166e-04 3.9711e-03 0.0000e+00
9.3957e-04 4.1881e-03 0.0000e+00
9.2695e-04 4.4156e-03 0.0000e+00
1.1606e-03 2.2884e-04 0.0000e+00
1.1779e-03 4.5358e-04 0.0000e+00
1.2122e-03 6.6237e-04 0.0000e+00
1.2672e-03 8.4852e-04 0.0000e+00
1.3387e-03 1.0083e-03 0.0000e+00
1.4131e-03 1.1504e-03 0.0000e+00
1.4820e-03 1.2810e-03 0.0000e+00
1.5389e-03 1.4076e-03 0.0000e+00
1.5855e-03 1.5329e-03 0.0000e+00
1.6224e-03 1.6572e-03 0.0000e+00
1.6513e-03 1.7804e-03 0.0000e+00
1.6731e-03 1.9024e-03 0.0000e+00
1.6887e-03 2.0235e-03 0.0000e+00
1.6989e-03 2.1439e-03 0.0000e+00
1.7039e-03 2.2637e-03 0.0000e+00
1.7039e-03 2.3834e-03 0.0000e+00
1.6990e-03 2.5032e-03 0.0000e+00
1.6890e-03 2.6235e-03 0.0000e+00
1.6734e-03 2.7446e-03 0.0000e+00
1.6517e-03 2.8666e-03 0.0000e+00
1.6230e-03 2.9897e-03 0.0000e+00
1.5861e-03 3.1139e-03 0.0000e+00
1.5396e-03 3.2392e-03 0.0000e+00
1.4827e-03 3.3657e-03 0.0000e+00
1.4139e-03 3.4962e-03 0.0000e+00
1.3394e-03 3.6382e-03 0.0000e+00
1.2678e-03 3.7978e-03 0.0000e+00
1.2124e-03 3.9840e-03 0.0000e+00
1.1778e-03 4.1929e-03 0.0000e+00
1.1603e-03 4.4178e-03 0.0000e+00
1.3969e-03 2.2724e-04 0.0000e+00
1.4230e-03 4.4581e-04 0.0000e+00
1.4744e-03 6.4348e-04 0.0000e+00
1.5495e-03 8.1172e-04 0.0000e+00
1.6335e-03 9.5867e-04 0.0000e+00
1.7131e-03 1.0918e-03 0.0000e+00
1.7791e-03 1.2231e-03 0.0000e+00
1.8339e-03 1.3536e-03 0.0000e+00
1.8790e-03 1.4849e-03 0.0000e+00
1.9159e-03 1.6157e-03 0.0000e+00
1.9455e-03 1.7459e-03 0.0000e+00
1.9684e-03 1.8753e-03 0.0000e+00
1.9852e-03 2.0040e-03 0.0000e+00
1.9962e-03 2.1321e-03 0.0000e+00
2.0017e-03 2.2597e-03 0.0000e+00
2.0017e-03 2.3873e-03 0.0000e+00
1.9964e-03 2.5150e-03 0.0000e+00
1.9855e-03 2.6430e-03 0.0000e+00
1.9688e-03 2.7717e-03 0.0000e+00
1.9460e-03 2.9010e-03 0.0000e+00
1.9165e-03 3.0312e-03 0.0000e+00
1.8796e-03 3.1620e-03 0.0000e+00
1.8346e-03 3.2932e-03 0.0000e+00
1.7799e-03 3.4237e-03 0.0000e+00
1.7138e-03 3.5549e-03 0.0000e+00
1.6341e-03 3.6880e-03 0.0000e+00
1.5500e-03 3.8347e-03 0.0000e+00
1.4745e-03 4.0030e-03 0.0000e+00
1.4229e-03 4.2007e-03 0.0000e+00
1.3967e-03 4.4193e-03 0.0000e+00
1.6347e-03 2.2405e-04 0.0000e+00
1.6773e-03 4.3359e-04 0.0000e+00
1.7516e-03 6.1126e-04 0.0000e+00
1.8439e-03 7.6161e-04 0.0000e+00
1.9338e-03 8.9486e-04 0.0000e+00
2.0067e-03 1.0281e-03 0.0000e+00
2.0677e-03 1.1636e-03 0.0000e+00
2.1186e-03 1.3002e-03 0.0000e+00
2.1621e-03 1.4377e-03 0.0000e+00
2.1986e-03 1.5752e-03 0.0000e+00
2.2285e-03 1.7123e-03 0.0000e+00
2.2521e-03 1.8488e-03 0.0000e+00
2.2696e-03 1.9848e-03 0.0000e+00
2.2812e-03 2.1205e-03 0.0000e+00
2.2870e-03 2.2558e-03 0.0000e+00
2.2871e-03 2.3911e-03 0.0000e+00
2.2814e-03 2.5265e-03 0.0000e+00
2.2699e-03 2.6621e-03 0.0000e+00
2.2525e-03 2.7981e-03 0.0000e+00
2.2290e-03 2.9347e-03 0.0000e+00
2.1991e-03 3.0717e-03 0.0000e+00
2.1628e-03 3.2091e-03 0.0000e+00
2.1193e-03 3.3467e-03 0.0000e+00
2.0684e-03 3.4832e-03 0.0000e+00
2.0074e-03 3.6187e-03 0.0000e+00
1.9342e-03 3.7519e-03 0.0000e+00
1.8442e-03 3.8849e-03 0.0000e+00
1.7517e-03 4.0353e-03 0.0000e+00
1.6771e-03 4.2130e-03 0.0000e+00
1.6344e-03 4.4225e-03 0.0000e+00
1.8803e-03 2.1774e-04 0.0000e+00
1.9482e-03 4.0726e-04 0.0000e+00
2.0485e-03 5.6087e-04 0.0000e+00
2.1493e-03 6.9003e-04 0.0000e+00
2.2275e-03 8.2291e-04 0.0000e+00
2.2922e-03 9.6174e-04 0.0000e+00
2.3470e-03 1.1039e-03 0.0000e+00
2.3949e-03 1.2468e-03 0.0000e+00
2.4368e-03 1.3908e-03 0.0000e+00
2.4727e-03 1.5348e-03 0.0000e+00
2.5025e-03 1.6787e-03 0.0000e+00
2.5265e-03 1.8223e-03 0.0000e+00
2.5444e-03 1.9657e-03 0.0000e+00
2.5564e-03 2.1089e-03 0.0000e+00
2.5624e-03 2.2519e-03 0.0000e+00
2.5624e-03 2.3950e-03 0.0000e+00
2.5565e-03 2.5380e-03 0.0000e+00
2.5447e-03 2.6812e-03 0.0000e+00
2.5269e-03 2.8246e-03 0.0000e+00
2.5030e-03 2.9682e-03 0.0000e+00
2.4732e-03 3.1121e-03 0.0000e+00
2.4374e-03 3.2561e-03 0.0000e+00
2.3956e-03 3.4000e-03 0.0000e+00
2.3476e-03 3.5430e-03 0.0000e+00
2.2927e-03 3.6851e-03 0.0000e+00
2.2279e-03 3.8239e-03 0.0000e+00
2.1496e-03 3.9566e-03 0.0000e+00
2.0486e-03 4.0857e-03 0.0000e+00
1.9481e-03 4.2393e-03 0.0000e+00
1.8800e-03 4.4288e-03 0.0000e+00
2.1402e-03 2.0068e-04 0.0000e+00
2.2496e-03 3.5795e-04 0.0000e+00
2.3640e-03 4.7717e-04 0.0000e+00
2.4450e-03 6.0601e-04 0.0000e+00
2.5107e-03 7.4766e-04 0.0000e+00
2.5670e-03 8.9429e-04 0.0000e+00
2.6178e-03 1.0434e-03 0.0000e+00
2.6631e-03 1.1927e-03 0.0000e+00
2.7036e-03 1.3431e-03 0.0000e+00
2.7387e-03 1.4937e-03 0.0000e+00
2.7684e-03 1.6444e-03 0.0000e+00
2.7923e-03 1.7953e-03 0.0000e+00
2.8103e-03 1.9461e-03 0.0000e+00
2.8224e-03 2.0970e-03 0.0000e+00
2.8285e-03 2.2479e-03 0.0000e+00
2.8285e-03 2.3989e-03 0.0000e+00
2.8226e-03 2.5498e-03 0.0000e+00
2.8106e-03 2.7007e-03 0.0000e+00
2.7926e-03 2.8516e-03 0.0000e+00
2.7688e-03 3.0024e-03 0.0000e+00
2.7393e-03 3.1532e-03 0.0000e+00
2.7042e-03 3.3038e-03 0.0000e+00
2.6637e-03 3.4542e-03 0.0000e+00
2.6183e-03 3.6035e-03 0.0000e+00
2.5674e-03 3.7526e-03 0.0000e+00
2.5110e-03 3.8992e-03 0.0000e+00
2.4452e-03 4.0407e-03 0.0000e+00
2.3641e-03 4.1695e-03 0.0000e+00
2.2495e-03 4.2887e-03 0.0000e+00
2.1400e-03 4.4459e-03 0.0000e+00