# vtk DataFile Version 3.0
VTK Example
ASCII
DATASET UNSTRUCTURED_GRID
POINTS 972 float 
0 -3.97272e-05 0.0
0.00254402 -4.01415e-05 0.0
0.00254389 0.00704811 0.0
0 0.00704807 0.0
0.000144683 -3.99556e-05 0.0
0.000296758 -3.99887e-05 0.0
0.000445747 -3.99884e-05 0.0
0.000594524 -3.99995e-05 0.0
0.000743564 -4.00106e-05 0.0
0.000892748 -4.00217e-05 0.0
0.00104155 -4.00298e-05 0.0
0.0011909 -4.00409e-05 0.0
0.00134138 -4.00507e-05 0.0
0.00149094 -4.00596e-05 0.0
0.00164061 -4.00687e-05 0.0
0.00179036 -4.00771e-05 0.0
0.00194021 -4.00844e-05 0.0
0.00209015 -4.00899e-05 0.0
0.00224034 -4.00965e-05 0.0
0.00239116 -4.00878e-05 0.0
0.00254643 9.80867e-05 0.0
0.00254829 0.000237657 0.0
0.00255016 0.000377946 0.0
0.00255187 0.000518162 0.0
0.00255355 0.000658402 0.0
0.00255522 0.000798466 0.0
0.00255695 0.000937861 0.0
0.00255882 0.00107743 0.0
0.00256092 0.00121774 0.0
0.00256324 0.00135691 0.0
0.00256576 0.00149592 0.0
0.00256843 0.00163481 0.0
0.0025712 0.00177358 0.0
0.00257402 0.00191227 0.0
0.00257684 0.00205088 0.0
0.0025796 0.00218942 0.0
0.00258226 0.0023279 0.0
0.00258477 0.00246633 0.0
0.00258707 0.00260471 0.0
0.00258914 0.00274305 0.0
0.00259092 0.00288136 0.0
0.00259239 0.00301964 0.0
0.00259352 0.00315789 0.0
0.00259428 0.00329612 0.0
0.00259467 0.00343435 0.0
0.00259468 0.00357351 0.0
0.00259429 0.00371173 0.0
0.00259353 0.00384996 0.0
0.00259241 0.00398821 0.0
0.00259095 0.00412649 0.0
0.00258917 0.0042648 0.0
0.00258711 0.00440314 0.0
0.00258481 0.00454152 0.0
0.0025823 0.00467995 0.0
0.00257964 0.00481844 0.0
0.00257688 0.00495698 0.0
0.00257405 0.0050956 0.0
0.00257122 0.00523429 0.0
0.00256844 0.00537308 0.0
0.00256576 0.00551198 0.0
0.00256323 0.005651 0.0
0.00256089 0.00579018 0.0
0.00255877 0.0059305 0.0
0.00255688 0.00607008 0.0
0.00255513 0.00620986 0.0
0.00255345 0.00634984 0.0
0.00255176 0.00648999 0.0
0.00255003 0.00663021 0.0
0.00254816 0.00677041 0.0
0.0025463 0.00690998 0.0
0.00239103 0.00704806 0.0
0.00224021 0.00704807 0.0
0.00209002 0.00704806 0.0
0.00194008 0.00704806 0.0
0.00179024 0.00704805 0.0
0.0016405 0.00704804 0.0
0.00149084 0.00704803 0.0
0.00134128 0.00704802 0.0
0.0011908 0.00704801 0.0
0.00104145 0.007048 0.0
0.000892618 0.00704799 0.0
0.000743374 0.00704798 0.0
0.000594218 0.00704797 0.0
0.000445292 0.00704796 0.0
0.000296475 0.00704795 0.0
0.000148048 0.00704793 0.0
0 0.00690345 0.0
0 0.00676014 0.0
0 0.00661749 0.0
0 0.00647513 0.0
0 0.00633287 0.0
0 0.00619069 0.0
0 0.00604863 0.0
0 0.00590678 0.0
0 0.00576428 0.0
0 0.00562319 0.0
0 0.00548265 0.0
0 0.00534273 0.0
0 0.00520347 0.0
0 0.00506491 0.0
0 0.00492699 0.0
0 0.00478967 0.0
0 0.00465289 0.0
0 0.00451659 0.0
0 0.00438073 0.0
0 0.00424524 0.0
0 0.00411009 0.0
0 0.0039752 0.0
0 0.00384053 0.0
0 0.00370602 0.0
0 0.00357161 0.0
0 0.00343631 0.0
0 0.00330189 0.0
0 0.00316738 0.0
0 0.0030327 0.0
0 0.00289782 0.0
0 0.00276265 0.0
0 0.00262716 0.0
0 0.00249129 0.0
0 0.00235498 0.0
0 0.0022182 0.0
0 0.00208087 0.0
0 0.00194294 0.0
0 0.00180436 0.0
0 0.00166509 0.0
0 0.00152516 0.0
0 0.0013846 0.0
0 0.0012435 0.0
0 0.00110098 0.0
0 0.0009591 0.0
0 0.000817379 0.0
0 0.000674993 0.0
0 0.000532341 0.0
0 0.000389197 0.0
0 0.000244878 0.0
0 9.71881e-05 0.0
0.000147266 0.000101636 0.0
0.00014833 0.000245169 0.0
0.000148876 0.000389075 0.0
0.000149255 0.000532136 0.0
0.000149433 0.000674797 0.0
0.000149535 0.000817195 0.0
0.000149639 0.000958913 0.0
0.000149784 0.00110079 0.0
0.000149988 0.0012433 0.0
0.000150255 0.00138441 0.0
0.000150572 0.00152497 0.0
0.000150921 0.00166489 0.0
0.000151286 0.00180415 0.0
0.000151646 0.00194273 0.0
0.000151982 0.00208066 0.0
0.000152289 0.00221801 0.0
0.000152565 0.00235482 0.0
0.000152813 0.00249115 0.0
0.000153037 0.00262705 0.0
0.000153234 0.00276256 0.0
0.000153401 0.00289775 0.0
0.000153538 0.00303265 0.0
0.000153643 0.00316734 0.0
0.000153714 0.00330187 0.0
0.00015375 0.0034363 0.0
0.00015375 0.00357161 0.0
0.000153715 0.00370604 0.0
0.000153644 0.00384057 0.0
0.00015354 0.00397525 0.0
0.000153404 0.00411016 0.0
0.000153237 0.00424533 0.0
0.000153041 0.00438084 0.0
0.000152818 0.00451673 0.0
0.00015257 0.00465306 0.0
0.000152294 0.00478986 0.0
0.000151988 0.00492719 0.0
0.000151652 0.00506512 0.0
0.000151293 0.00520368 0.0
0.000150928 0.00534293 0.0
0.000150579 0.00548284 0.0
0.000150262 0.00562338 0.0
0.000149997 0.00576448 0.0
0.000149794 0.00590697 0.0
0.000149656 0.00604882 0.0
0.00014957 0.00619087 0.0
0.000149518 0.00633304 0.0
0.000149476 0.0064753 0.0
0.000149386 0.0066177 0.0
0.000149171 0.0067604 0.0
0.000148742 0.00690371 0.0
0.000297318 0.000103322 0.0
0.000297383 0.000246095 0.0
0.000297875 0.000389026 0.0
0.000298412 0.000531868 0.0
0.00029875 0.000674534 0.0
0.000298971 0.000816938 0.0
0.000299189 0.000958639 0.0
0.000299484 0.00110048 0.0
0.000299895 0.00124295 0.0
0.000300425 0.00138401 0.0
0.000301059 0.00152452 0.0
0.000301755 0.00166441 0.0
0.000302475 0.00180364 0.0
0.00030318 0.00194223 0.0
0.000303841 0.00208019 0.0
0.000304447 0.00221757 0.0
0.000304995 0.00235443 0.0
0.000305491 0.00249081 0.0
0.000305938 0.00262676 0.0
0.000306334 0.00276233 0.0
0.000306672 0.00289756 0.0
0.000306947 0.00303251 0.0
0.000307157 0.00316724 0.0
0.0003073 0.00330181 0.0
0.000307372 0.00343628 0.0
0.000307373 0.00357163 0.0
0.000307302 0.0037061 0.0
0.00030716 0.00384067 0.0
0.000306951 0.0039754 0.0
0.000306677 0.00411034 0.0
0.00030634 0.00424557 0.0
0.000305945 0.00438113 0.0
0.0003055 0.00451707 0.0
0.000305005 0.00465344 0.0
0.000304458 0.00479029 0.0
0.000303853 0.00492767 0.0
0.000303192 0.00506562 0.0
0.000302488 0.00520419 0.0
0.000301769 0.00534341 0.0
0.000301073 0.00548329 0.0
0.000300441 0.00562379 0.0
0.000299913 0.00576483 0.0
0.000299507 0.00590727 0.0
0.000299229 0.00604908 0.0
0.000299052 0.0061911 0.0
0.000298937 0.00633326 0.0
0.000298824 0.00647554 0.0
0.000298618 0.00661801 0.0
0.000298193 0.00676079 0.0
0.000297457 0.00690407 0.0
0.000446654 0.000103632 0.0
0.000447037 0.000246562 0.0
0.000447326 0.000389181 0.0
0.000447764 0.000531657 0.0
0.000448183 0.000674198 0.0
0.000448525 0.000816566 0.0
0.000448875 0.000958226 0.0
0.000449333 0.0011 0.0
0.000449958 0.00124239 0.0
0.000450753 0.00138336 0.0
0.000451694 0.00152379 0.0
0.000452718 0.00166363 0.0
0.00045377 0.00180284 0.0
0.000454797 0.00194143 0.0
0.000455766 0.00207944 0.0
0.000456661 0.00221688 0.0
0.000457479 0.00235381 0.0
0.000458221 0.00249027 0.0
0.00045889 0.0026263 0.0
0.000459487 0.00276194 0.0
0.000459998 0.00289724 0.0
0.000460413 0.00303227 0.0
0.00046073 0.00316706 0.0
0.000460945 0.0033017 0.0
0.000461054 0.00343624 0.0
0.000461055 0.00357167 0.0
0.000460948 0.00370621 0.0
0.000460735 0.00384084 0.0
0.000460419 0.00397564 0.0
0.000460005 0.00411066 0.0
0.000459496 0.00424596 0.0
0.000458901 0.00438159 0.0
0.000458233 0.00451761 0.0
0.000457493 0.00465406 0.0
0.000456677 0.00479098 0.0
0.000455783 0.00492842 0.0
0.000454816 0.00506641 0.0
0.00045379 0.005205 0.0
0.000452739 0.00534419 0.0
0.000451716 0.00548401 0.0
0.000450777 0.00562443 0.0
0.000449986 0.00576538 0.0
0.000449372 0.00590774 0.0
0.000448943 0.00604948 0.0
0.000448661 0.00619145 0.0
0.00044846 0.00633359 0.0
0.000448245 0.00647589 0.0
0.000447895 0.00661841 0.0
0.0004473 0.00676123 0.0
0.000446408 0.00690439 0.0
0.000595621 0.000103475 0.0
0.000596372 0.00024645 0.0
0.000596832 0.000389138 0.0
0.000597194 0.000531479 0.0
0.000597594 0.000673836 0.0
0.000598023 0.000816097 0.0
0.000598515 0.000957677 0.0
0.000599153 0.00109936 0.0
0.000600004 0.00124162 0.0
0.00060106 0.00138247 0.0
0.00060229 0.0015228 0.0
0.000603613 0.00166257 0.0
0.000604962 0.00180176 0.0
0.000606282 0.00194037 0.0
0.000607536 0.00207843 0.0
0.000608708 0.00221595 0.0
0.000609789 0.00235298 0.0
0.000610776 0.00248953 0.0
0.000611667 0.00262565 0.0
0.000612462 0.0027614 0.0
0.000613147 0.0028968 0.0
0.000613705 0.00303192 0.0
0.00061413 0.00316682 0.0
0.000614417 0.00330156 0.0
0.000614562 0.00343619 0.0
0.000614563 0.00357171 0.0
0.00061442 0.00370635 0.0
0.000614135 0.00384108 0.0
0.000613713 0.00397598 0.0
0.000613157 0.0041111 0.0
0.000612475 0.0042465 0.0
0.000611682 0.00438224 0.0
0.000610793 0.00451835 0.0
0.000609808 0.0046549 0.0
0.000608729 0.00479191 0.0
0.000607559 0.00492943 0.0
0.000606306 0.00506747 0.0
0.000604988 0.00520608 0.0
0.00060364 0.00534525 0.0
0.000602319 0.005485 0.0
0.000601093 0.00562531 0.0
0.000600044 0.00576615 0.0
0.000599212 0.00590839 0.0
0.000598614 0.00605002 0.0
0.000598202 0.00619193 0.0
0.00059789 0.00633404 0.0
0.000597554 0.00647634 0.0
0.000597068 0.00661885 0.0
0.000596353 0.00676161 0.0
0.000595399 0.00690464 0.0
0.000744762 0.000103274 0.0
0.000745691 0.000246154 0.0
0.000746359 0.000388835 0.0
0.000746818 0.00053117 0.0
0.000747225 0.000673425 0.0
0.000747714 0.000815547 0.0
0.000748345 0.000956995 0.0
0.000749179 0.00109854 0.0
0.000750262 0.00124065 0.0
0.000751567 0.00138136 0.0
0.000753057 0.00152157 0.0
0.000754642 0.00166126 0.0
0.000756251 0.00180043 0.0
0.000757832 0.00193907 0.0
0.000759351 0.00207719 0.0
0.000760784 0.00221481 0.0
0.00076212 0.00235193 0.0
0.000763348 0.0024886 0.0
0.00076446 0.00262484 0.0
0.000765449 0.0027607 0.0
0.000766305 0.00289623 0.0
0.000767007 0.00303148 0.0
0.00076754 0.00316651 0.0
0.0007679 0.00330137 0.0
0.000768082 0.00343613 0.0
0.000768084 0.00357178 0.0
0.000767904 0.00370654 0.0
0.000767547 0.0038414 0.0
0.000767017 0.00397642 0.0
0.000766317 0.00411167 0.0
0.000765464 0.00424719 0.0
0.000764479 0.00438305 0.0
0.000763369 0.00451928 0.0
0.000762144 0.00465594 0.0
0.000760811 0.00479306 0.0
0.000759379 0.00493066 0.0
0.000757863 0.00506877 0.0
0.000756284 0.0052074 0.0
0.000754676 0.00534656 0.0
0.000753095 0.00548624 0.0
0.00075161 0.00562643 0.0
0.000750316 0.00576712 0.0
0.000749256 0.00590921 0.0
0.000748465 0.00605072 0.0
0.000747895 0.00619253 0.0
0.000747448 0.00633458 0.0
0.00074699 0.00647684 0.0
0.000746398 0.00661929 0.0
0.000745605 0.00676194 0.0
0.000744601 0.00690483 0.0
0.000894024 0.000103083 0.0
0.000895062 0.00024582 0.0
[...]
POINT_DATA 972
VECTORS Position float
0.0000e+00 -3.9727e-05 0.0000e+00
2.5440e-03 -4.0142e-05 0.0000e+00
2.5439e-03 7.0481e-03 0.0000e+00
0.0000e+00 7.0481e-03 0.0000e+00
1.4468e-04 -3.9956e-05 0.0000e+00
2.9676e-04 -3.9989e-05 0.0000e+00
4.4575e-04 -3.9988e-05 0.0000e+00
5.9452e-04 -4.0000e-05 0.0000e+00
7.4356e-04 -4.0011e-05 0.0000e+00
8.9275e-04 -4.0022e-05 0.0000e+00
1.0416e-03 -4.0030e-05 0.0000e+00
1.1909e-03 -4.0041e-05 0.0000e+00
1.3414e-03 -4.0051e-05 0.0000e+00
1.4909e-03 -4.0060e-05 0.0000e+00
1.6406e-03 -4.0069e-05 0.0000e+00
1.7904e-03 -4.0077e-05 0.0000e+00
1.9402e-03 -4.0084e-05 0.0000e+00
2.0902e-03 -4.0090e-05 0.0000e+00
2.2403e-03 -4.0096e-05 0.0000e+00
2.3912e-03 -4.0088e-05 0.0000e+00
2.5464e-03 9.8087e-05 0.0000e+00
2.5483e-03 2.3766e-04 0.0000e+00
2.5502e-03 3.7795e-04 0.0000e+00
2.5519e-03 5.1816e-04 0.0000e+00
2.5535e-03 6.5840e-04 0.0000e+00
2.5552e-03 7.9847e-04 0.0000e+00
2.5570e-03 9.3786e-04 0.0000e+00
2.5588e-03 1.0774e-03 0.0000e+00
2.5609e-03 1.2177e-03 0.0000e+00
2.5632e-03 1.3569e-03 0.0000e+00
2.5658e-03 1.4959e-03 0.0000e+00
2.5684e-03 1.6348e-03 0.0000e+00
2.5712e-03 1.7736e-03 0.0000e+00
2.5740e-03 1.9123e-03 0.0000e+00
2.5768e-03 2.0509e-03 0.0000e+00
2.5796e-03 2.1894e-03 0.0000e+00
2.5823e-03 2.3279e-03 0.0000e+00
2.5848e-03 2.4663e-03 0.0000e+00
2.5871e-03 2.6047e-03 0.0000e+00
2.5891e-03 2.7431e-03 0.0000e+00
2.5909e-03 2.8814e-03 0.0000e+00
2.5924e-03 3.0196e-03 0.0000e+00
2.5935e-03 3.1579e-03 0.0000e+00
2.5943e-03 3.2961e-03 0.0000e+00
2.5947e-03 3.4343e-03 0.0000e+00
2.5947e-03 3.5735e-03 0.0000e+00
2.5943e-03 3.7117e-03 0.0000e+00
2.5935e-03 3.8500e-03 0.0000e+00
2.5924e-03 3.9882e-03 0.0000e+00
2.5909e-03 4.1265e-03 0.0000e+00
2.5892e-03 4.2648e-03 0.0000e+00
2.5871e-03 4.4031e-03 0.0000e+00
2.5848e-03 4.5415e-03 0.0000e+00
2.5823e-03 4.6800e-03 0.0000e+00
2.5796e-03 4.8184e-03 0.0000e+00
2.5769e-03 4.9570e-03 0.0000e+00
2.5741e-03 5.0956e-03 0.0000e+00
2.5712e-03 5.2343e-03 0.0000e+00
2.5684e-03 5.3731e-03 0.0000e+00
2.5658e-03 5.5120e-03 0.0000e+00
2.5632e-03 5.6510e-03 0.0000e+00
2.5609e-03 5.7902e-03 0.0000e+00
2.5588e-03 5.9305e-03 0.0000e+00
2.5569e-03 6.0701e-03 0.0000e+00
2.5551e-03 6.2099e-03 0.0000e+00
2.5534e-03 6.3498e-03 0.0000e+00
2.5518e-03 6.4900e-03 0.0000e+00
2.5500e-03 6.6302e-03 0.0000e+00
2.5482e-03 6.7704e-03 0.0000e+00
2.5463e-03 6.9100e-03 0.0000e+00
2.3910e-03 7.0481e-03 0.0000e+00
2.2402e-03 7.0481e-03 0.0000e+00
2.0900e-03 7.0481e-03 0.0000e+00
1.9401e-03 7.0481e-03 0.0000e+00
1.7902e-03 7.0481e-03 0.0000e+00
1.6405e-03 7.0480e-03 0.0000e+00
1.4908e-03 7.0480e-03 0.0000e+00
1.3413e-03 7.0480e-03 0.0000e+00
1.1908e-03 7.0480e-03 0.0000e+00
1.0415e-03 7.0480e-03 0.0000e+00
8.9262e-04 7.0480e-03 0.0000e+00
7.4337e-04 7.0480e-03 0.0000e+00
5.9422e-04 7.0480e-03 0.0000e+00
4.4529e-04 7.0480e-03 0.0000e+00
2.9648e-04 7.0480e-03 0.0000e+00
1.4805e-04 7.0479e-03 0.0000e+00
0.0000e+00 6.9034e-03 0.0000e+00
0.0000e+00 6.7601e-03 0.0000e+00
0.0000e+00 6.6175e-03 0.0000e+00
0.0000e+00 6.4751e-03 0.0000e+00
0.0000e+00 6.3329e-03 0.0000e+00
0.0000e+00 6.1907e-03 0.0000e+00
0.0000e+00 6.0486e-03 0.0000e+00
0.0000e+00 5.9068e-03 0.0000e+00
0.0000e+00 5.7643e-03 0.0000e+00
0.0000e+00 5.6232e-03 0.0000e+00
0.0000e+00 5.4826e-03 0.0000e+00
0.0000e+00 5.3427e-03 0.0000e+00
0.0000e+00 5.2035e-03 0.0000e+00
0.0000e+00 5.0649e-03 0.0000e+00
0.0000e+00 4.9270e-03 0.0000e+00
0.0000e+00 4.7897e-03 0.0000e+00
0.0000e+00 4.6529e-03 0.0000e+00
0.0000e+00 4.5166e-03 0.0000e+00
0.0000e+00 4.3807e-03 0.0000e+00
0.0000e+00 4.2452e-03 0.0000e+00
0.0000e+00 4.1101e-03 0.0000e+00
0.0000e+00 3.9752e-03 0.0000e+00
0.0000e+00 3.8405e-03 0.0000e+00
0.0000e+00 3.7060e-03 0.0000e+00
0.0000e+00 3.5716e-03 0.0000e+00
0.0000e+00 3.4363e-03 0.0000e+00
0.0000e+00 3.3019e-03 0.0000e+00
0.0000e+00 3.1674e-03 0.0000e+00
0.0000e+00 3.0327e-03 0.0000e+00
0.0000e+00 2.8978e-03 0.0000e+00
0.0000e+00 2.7627e-03 0.0000e+00
0.0000e+00 2.6272e-03 0.0000e+00
0.0000e+00 2.4913e-03 0.0000e+00
0.0000e+00 2.3550e-03 0.0000e+00
0.0000e+00 2.2182e-03 0.0000e+00
0.0000e+00 2.0809e-03 0.0000e+00
0.0000e+00 1.9429e-03 0.0000e+00
0.0000e+00 1.8044e-03 0.0000e+00
0.0000e+00 1.6651e-03 0.0000e+00
0.0000e+00 1.5252e-03 0.0000e+00
0.0000e+00 1.3846e-03 0.0000e+00
0.0000e+00 1.2435e-03 0.0000e+00
0.0000e+00 1.1010e-03 0.0000e+00
0.0000e+00 9.5910e-04 0.0000e+00
0.0000e+00 8.1738e-04 0.0000e+00
0.0000e+00 6.7499e-04 0.0000e+00
0.0000e+00 5.3234e-04 0.0000e+00
0.0000e+00 3.8920e-04 0.0000e+00
0.0000e+00 2.4488e-04 0.0000e+00
0.0000e+00 9.7188e-05 0.0000e+00
1.4727e-04 1.0164e-04 0.0000e+00
1.4833e-04 2.4517e-04 0.0000e+00
1.4888e-04 3.8907e-04 0.0000e+00
1.4925e-04 5.3214e-04 0.0000e+00
1.4943e-04 6.7480e-04 0.0000e+00
1.4953e-04 8.1719e-04 0.0000e+00
1.4964e-04 9.5891e-04 0.0000e+00
1.4978e-04 1.1008e-03 0.0000e+00
1.4999e-04 1.2433e-03 0.0000e+00
1.5025e-04 1.3844e-03 0.0000e+00
1.5057e-04 1.5250e-03 0.0000e+00
1.5092e-04 1.6649e-03 0.0000e+00
1.5129e-04 1.8041e-03 0.0000e+00
1.5165e-04 1.9427e-03 0.0000e+00
1.5198e-04 2.0807e-03 0.0000e+00
1.5229e-04 2.2180e-03 0.0000e+00
1.5256e-04 2.3548e-03 0.0000e+00
1.5281e-04 2.4911e-03 0.0000e+00
1.5304e-04 2.6270e-03 0.0000e+00
1.5323e-04 2.7626e-03 0.0000e+00
1.5340e-04 2.8977e-03 0.0000e+00
1.5354e-04 3.0327e-03 0.0000e+00
1.5364e-04 3.1673e-03 0.0000e+00
1.5371e-04 3.3019e-03 0.0000e+00
1.5375e-04 3.4363e-03 0.0000e+00
1.5375e-04 3.5716e-03 0.0000e+00
1.5371e-04 3.7060e-03 0.0000e+00
1.5364e-04 3.8406e-03 0.0000e+00
1.5354e-04 3.9753e-03 0.0000e+00
1.5340e-04 4.1102e-03 0.0000e+00
1.5324e-04 4.2453e-03 0.0000e+00
1.5304e-04 4.3808e-03 0.0000e+00
1.5282e-04 4.5167e-03 0.0000e+00
1.5257e-04 4.6531e-03 0.0000e+00
1.5229e-04 4.7899e-03 0.0000e+00
1.5199e-04 4.9272e-03 0.0000e+00
1.5165e-04 5.0651e-03 0.0000e+00
1.5129e-04 5.2037e-03 0.0000e+00
1.5093e-04 5.3429e-03 0.0000e+00
1.5058e-04 5.4828e-03 0.0000e+00
1.5026e-04 5.6234e-03 0.0000e+00
1.5000e-04 5.7645e-03 0.0000e+00
1.4979e-04 5.9070e-03 0.0000e+00
1.4966e-04 6.0488e-03 0.0000e+00
1.4957e-04 6.1909e-03 0.0000e+00
1.4952e-04 6.3330e-03 0.0000e+00
1.4948e-04 6.4753e-03 0.0000e+00
1.4939e-04 6.6177e-03 0.0000e+00
1.4917e-04 6.7604e-03 0.0000e+00
1.4874e-04 6.9037e-03 0.0000e+00
2.9732e-04 1.0332e-04 0.0000e+00
2.9738e-04 2.4609e-04 0.0000e+00
2.9788e-04 3.8903e-04 0.0000e+00
2.9841e-04 5.3187e-04 0.0000e+00
2.9875e-04 6.7453e-04 0.0000e+00
2.9897e-04 8.1694e-04 0.0000e+00
2.9919e-04 9.5864e-04 0.0000e+00
2.9948e-04 1.1005e-03 0.0000e+00
2.9989e-04 1.2429e-03 0.0000e+00
3.0043e-04 1.3840e-03 0.0000e+00
3.0106e-04 1.5245e-03 0.0000e+00
3.0176e-04 1.6644e-03 0.0000e+00
3.0248e-04 1.8036e-03 0.0000e+00
3.0318e-04 1.9422e-03 0.0000e+00
3.0384e-04 2.0802e-03 0.0000e+00
3.0445e-04 2.2176e-03 0.0000e+00
3.0500e-04 2.3544e-03 0.0000e+00
3.0549e-04 2.4908e-03 0.0000e+00
3.0594e-04 2.6268e-03 0.0000e+00
3.0633e-04 2.7623e-03 0.0000e+00
3.0667e-04 2.8976e-03 0.0000e+00
3.0695e-04 3.0325e-03 0.0000e+00
3.0716e-04 3.1672e-03 0.0000e+00
3.0730e-04 3.3018e-03 0.0000e+00
3.0737e-04 3.4363e-03 0.0000e+00
3.0737e-04 3.5716e-03 0.0000e+00
3.0730e-04 3.7061e-03 0.0000e+00
3.0716e-04 3.8407e-03 0.0000e+00
3.0695e-04 3.9754e-03 0.0000e+00
3.0668e-04 4.1103e-03 0.0000e+00
3.0634e-04 4.2456e-03 0.0000e+00
3.0595e-04 4.3811e-03 0.0000e+00
3.0550e-04 4.5171e-03 0.0000e+00
3.0501e-04 4.6534e-03 0.0000e+00
3.0446e-04 4.7903e-03 0.0000e+00
3.0385e-04 4.9277e-03 0.0000e+00
3.0319e-04 5.0656e-03 0.0000e+00
3.0249e-04 5.2042e-03 0.0000e+00
3.0177e-04 5.3434e-03 0.0000e+00
3.0107e-04 5.4833e-03 0.0000e+00
3.0044e-04 5.6238e-03 0.0000e+00
2.9991e-04 5.7648e-03 0.0000e+00
2.9951e-04 5.9073e-03 0.0000e+00
2.9923e-04 6.0491e-03 0.0000e+00
2.9905e-04 6.1911e-03 0.0000e+00
2.9894e-04 6.3333e-03 0.0000e+00
2.9882e-04 6.4755e-03 0.0000e+00
2.9862e-04 6.6180e-03 0.0000e+00
2.9819e-04 6.7608e-03 0.0000e+00
2.9746e-04 6.9041e-03 0.0000e+00
4.4665e-04 1.0363e-04 0.0000e+00
4.4704e-04 2.4656e-04 0.0000e+00
4.4733e-04 3.8918e-04 0.0000e+00
4.4776e-04 5.3166e-04 0.0000e+00
4.4818e-04 6.7420e-04 0.0000e+00
4.4852e-04 8.1657e-04 0.0000e+00
4.4887e-04 9.5823e-04 0.0000e+00
4.4933e-04 1.1000e-03 0.0000e+00
4.4996e-04 1.2424e-03 0.0000e+00
4.5075e-04 1.3834e-03 0.0000e+00
4.5169e-04 1.5238e-03 0.0000e+00
4.5272e-04 1.6636e-03 0.0000e+00
4.5377e-04 1.8028e-03 0.0000e+00
4.5480e-04 1.9414e-03 0.0000e+00
4.5577e-04 2.0794e-03 0.0000e+00
4.5666e-04 2.2169e-03 0.0000e+00
4.5748e-04 2.3538e-03 0.0000e+00
4.5822e-04 2.4903e-03 0.0000e+00
4.5889e-04 2.6263e-03 0.0000e+00
4.5949e-04 2.7619e-03 0.0000e+00
4.6000e-04 2.8972e-03 0.0000e+00
4.6041e-04 3.0323e-03 0.0000e+00
4.6073e-04 3.1671e-03 0.0000e+00
4.6094e-04 3.3017e-03 0.0000e+00
4.6105e-04 3.4362e-03 0.0000e+00
4.6105e-04 3.5717e-03 0.0000e+00
4.6095e-04 3.7062e-03 0.0000e+00
4.6073e-04 3.8408e-03 0.0000e+00
4.6042e-04 3.9756e-03 0.0000e+00
4.6001e-04 4.1107e-03 0.0000e+00
4.5950e-04 4.2460e-03 0.0000e+00
4.5890e-04 4.3816e-03 0.0000e+00
4.5823e-04 4.5176e-03 0.0000e+00
4.5749e-04 4.6541e-03 0.0000e+00
4.5668e-04 4.7910e-03 0.0000e+00
4.5578e-04 4.9284e-03 0.0000e+00
4.5482e-04 5.0664e-03 0.0000e+00
4.5379e-04 5.2050e-03 0.0000e+00
4.5274e-04 5.3442e-03 0.0000e+00
4.5172e-04 5.4840e-03 0.0000e+00
4.5078e-04 5.6244e-03 0.0000e+00
4.4999e-04 5.7654e-03 0.0000e+00
4.4937e-04 5.9077e-03 0.0000e+00
4.4894e-04 6.0495e-03 0.0000e+00
4.4866e-04 6.1914e-03 0.0000e+00
4.4846e-04 6.3336e-03 0.0000e+00
4.4824e-04 6.4759e-03 0.0000e+00
4.4789e-04 6.6184e-03 0.0000e+00
4.4730e-04 6.7612e-03 0.0000e+00
4.4641e-04 6.9044e-03 0.0000e+00
5.9562e-04 1.0348e-04 0.0000e+00
5.9637e-04 2.4645e-04 0.0000e+00
5.9683e-04 3.8914e-04 0.0000e+00
5.9719e-04 5.3148e-04 0.0000e+00
5.9759e-04 6.7384e-04 0.0000e+00
5.9802e-04 8.1610e-04 0.0000e+00
5.9851e-04 9.5768e-04 0.0000e+00
5.9915e-04 1.0994e-03 0.0000e+00
6.0000e-04 1.2416e-03 0.0000e+00
6.0106e-04 1.3825e-03 0.0000e+00
6.0229e-04 1.5228e-03 0.0000e+00
6.0361e-04 1.6626e-03 0.0000e+00
6.0496e-04 1.8018e-03 0.0000e+00
6.0628e-04 1.9404e-03 0.0000e+00
6.0754e-04 2.0784e-03 0.0000e+00
6.0871e-04 2.2160e-03 0.0000e+00
6.0979e-04 2.3530e-03 0.0000e+00
6.1078e-04 2.4895e-03 0.0000e+00
6.1167e-04 2.6257e-03 0.0000e+00
6.1246e-04 2.7614e-03 0.0000e+00
6.1315e-04 2.8968e-03 0.0000e+00
6.1370e-04 3.0319e-03 0.0000e+00
6.1413e-04 3.1668e-03 0.0000e+00
6.1442e-04 3.3016e-03 0.0000e+00
6.1456e-04 3.4362e-03 0.0000e+00
6.1456e-04 3.5717e-03 0.0000e+00
6.1442e-04 3.7064e-03 0.0000e+00
6.1414e-04 3.8411e-03 0.0000e+00
6.1371e-04 3.9760e-03 0.0000e+00
6.1316e-04 4.1111e-03 0.0000e+00
6.1247e-04 4.2465e-03 0.0000e+00
6.1168e-04 4.3822e-03 0.0000e+00
6.1079e-04 4.5184e-03 0.0000e+00
6.0981e-04 4.6549e-03 0.0000e+00
6.0873e-04 4.7919e-03 0.0000e+00
6.0756e-04 4.9294e-03 0.0000e+00
6.0631e-04 5.0675e-03 0.0000e+00
6.0499e-04 5.2061e-03 0.0000e+00
6.0364e-04 5.3453e-03 0.0000e+00
6.0232e-04 5.4850e-03 0.0000e+00
6.0109e-04 5.6253e-03 0.0000e+00
6.0004e-04 5.7661e-03 0.0000e+00
5.9921e-04 5.9084e-03 0.0000e+00
5.9861e-04 6.0500e-03 0.0000e+00
5.9820e-04 6.1919e-03 0.0000e+00
5.9789e-04 6.3340e-03 0.0000e+00
5.9755e-04 6.4763e-03 0.0000e+00
5.9707e-04 6.6188e-03 0.0000e+00
5.9635e-04 6.7616e-03 0.0000e+00
5.9540e-04 6.9046e-03 0.0000e+00
7.4476e-04 1.0327e-04 0.0000e+00
7.4569e-04 2.4615e-04 0.0000e+00
7.4636e-04 3.8883e-04 0.0000e+00
7.4682e-04 5.3117e-04 0.0000e+00
7.4723e-04 6.7342e-04 0.0000e+00
7.4771e-04 8.1555e-04 0.0000e+00
7.4834e-04 9.5699e-04 0.0000e+00
7.4918e-04 1.0985e-03 0.0000e+00
7.5026e-04 1.2407e-03 0.0000e+00
7.5157e-04 1.3814e-03 0.0000e+00
7.5306e-04 1.5216e-03 0.0000e+00
7.5464e-04 1.6613e-03 0.0000e+00
7.5625e-04 1.8004e-03 0.0000e+00
7.5783e-04 1.9391e-03 0.0000e+00
7.5935e-04 2.0772e-03 0.0000e+00
7.6078e-04 2.2148e-03 0.0000e+00
7.6212e-04 2.3519e-03 0.0000e+00
7.6335e-04 2.4886e-03 0.0000e+00
7.6446e-04 2.6248e-03 0.0000e+00
7.6545e-04 2.7607e-03 0.0000e+00
7.6630e-04 2.8962e-03 0.0000e+00
7.6701e-04 3.0315e-03 0.0000e+00
7.6754e-04 3.1665e-03 0.0000e+00
7.6790e-04 3.3014e-03 0.0000e+00
7.6808e-04 3.4361e-03 0.0000e+00
7.6808e-04 3.5718e-03 0.0000e+00
7.6790e-04 3.7065e-03 0.0000e+00
7.6755e-04 3.8414e-03 0.0000e+00
7.6702e-04 3.9764e-03 0.0000e+00
7.6632e-04 4.1117e-03 0.0000e+00
7.6546e-04 4.2472e-03 0.0000e+00
7.6448e-04 4.3830e-03 0.0000e+00
7.6337e-04 4.5193e-03 0.0000e+00
7.6214e-04 4.6559e-03 0.0000e+00
7.6081e-04 4.7931e-03 0.0000e+00
7.5938e-04 4.9307e-03 0.0000e+00
7.5786e-04 5.0688e-03 0.0000e+00
7.5628e-04 5.2074e-03 0.0000e+00
7.5468e-04 5.3466e-03 0.0000e+00
7.5310e-04 5.4862e-03 0.0000e+00
7.5161e-04 5.6264e-03 0.0000e+00
7.5032e-04 5.7671e-03 0.0000e+00
7.4926e-04 5.9092e-03 0.0000e+00
7.4847e-04 6.0507e-03 0.0000e+00
7.4790e-04 6.1925e-03 0.0000e+00
7.4745e-04 6.3346e-03 0.0000e+00
7.4699e-04 6.4768e-03 0.0000e+00
7.4640e-04 6.6193e-03 0.0000e+00
7.4560e-04 6.7619e-03 0.0000e+00
7.4460e-04 6.9048e-03 0.0000e+00
8.9402e-04 1.0308e-04 0.0000e+00
8.9506e-04 2.4582e-04 0.0000e+00
8.9586e-04 3.8842e-04 0.0000e+00
8.9645e-04 5.3071e-04 0.0000e+00
8.9695e-04 6.7290e-04 0.0000e+00
8.9753e-04 8.1490e-04 0.0000e+00
8.9830e-04 9.5618e-04 0.0000e+00
8.9934e-04 1.0975e-03 0.0000e+00
9.0065e-04 1.2395e-03 0.0000e+00
9.0218e-04 1.3800e-03 0.0000e+00
9.0389e-04 1.5201e-03 0.0000e+00
9.0570e-04 1.6597e-03 0.0000e+00
9.0753e-04 1.7989e-03 0.0000e+00
9.0934e-04 1.9376e-03 0.0000e+00
9.1110e-04 2.0758e-03 0.0000e+00
9.1278e-04 2.2135e-03 0.0000e+00
9.1436e-04 2.3507e-03 0.0000e+00
9.1582e-04 2.4875e-03 0.0000e+00
9.1715e-04 2.6239e-03 0.0000e+00
9.1833e-04 2.7599e-03 0.0000e+00
9.1935e-04 2.8955e-03 0.0000e+00
9.2019e-04 3.0309e-03 0.0000e+00
9.2083e-04 3.1661e-03 0.0000e+00
9.2127e-04 3.3011e-03 0.0000e+00
9.2149e-04 3.4361e-03 0.0000e+00
9.2149e-04 3.5719e-03 0.0000e+00
9.2127e-04 3.7068e-03 0.0000e+00
9.2084e-04 3.8418e-03 0.0000e+00
9.2020e-04 3.9770e-03 0.0000e+00
9.1936e-04 4.1124e-03 0.0000e+00
9.1835e-04 4.2480e-03 0.0000e+00
9.1717e-04 4.3840e-03 0.0000e+00
9.1585e-04 4.5204e-03 0.0000e+00
9.1439e-04 4.6572e-03 0.0000e+00
9.1281e-04 4.7944e-03 0.0000e+00
9.1114e-04 4.9321e-03 0.0000e+00
9.0938e-04 5.0703e-03 0.0000e+00
9.0757e-04 5.2089e-03 0.0000e+00
9.0574e-04 5.3481e-03 0.0000e+00
9.0394e-04 5.4877e-03 0.0000e+00
9.0223e-04 5.6278e-03 0.0000e+00
9.0071e-04 5.7683e-03 0.0000e+00
8.9943e-04 5.9102e-03 0.0000e+00
8.9842e-04 6.0516e-03 0.0000e+00
8.9767e-04 6.1932e-03 0.0000e+00
8.9706e-04 6.3352e-03 0.0000e+00
8.9649e-04 6.4774e-03 0.0000e+00
8.9582e-04 6.6197e-03 0.0000e+00
8.9497e-04 6.7623e-03 0.0000e+00
8.9390e-04 6.9050e-03 0.0000e+00
1.0429e-03 1.0289e-04 0.0000e+00
1.0440e-03 2.4548e-04 0.0000e+00
1.0449e-03 3.8797e-04 0.0000e+00
1.0456e-03 5.3017e-04 0.0000e+00
1.0462e-03 6.7227e-04 0.0000e+00
1.0470e-03 8.1413e-04 0.0000e+00
1.0479e-03 9.5522e-04 0.0000e+00
1.0491e-03 1.0964e-03 0.0000e+00
1.0507e-03 1.2381e-03 0.0000e+00
1.0524e-03 1.3785e-03 0.0000e+00
1.0543e-03 1.5185e-03 0.0000e+00
1.0563e-03 1.6580e-03 0.0000e+00
1.0583e-03 1.7972e-03 0.0000e+00
1.0603e-03 1.9359e-03 0.0000e+00
1.0623e-03 2.0742e-03 0.0000e+00
1.0642e-03 2.2119e-03 0.0000e+00
1.0660e-03 2.3493e-03 0.0000e+00
1.0677e-03 2.4862e-03 0.0000e+00
1.0692e-03 2.6227e-03 0.0000e+00
1.0706e-03 2.7589e-03 0.0000e+00
1.0717e-03 2.8947e-03 0.0000e+00
1.0727e-03 3.0303e-03 0.0000e+00
1.0735e-03 3.1656e-03 0.0000e+00
1.0740e-03 3.3009e-03 0.0000e+00
1.0742e-03 3.4360e-03 0.0000e+00
1.0742e-03 3.5719e-03 0.0000e+00
1.0740e-03 3.7071e-03 0.0000e+00
1.0735e-03 3.8423e-03 0.0000e+00
1.0727e-03 3.9776e-03 0.0000e+00
1.0718e-03 4.1132e-03 0.0000e+00
1.0706e-03 4.2490e-03 0.0000e+00
1.0692e-03 4.3852e-03 0.0000e+00
1.0677e-03 4.5217e-03 0.0000e+00
1.0660e-03 4.6586e-03 0.0000e+00
1.0642e-03 4.7959e-03 0.0000e+00
1.0623e-03 4.9337e-03 0.0000e+00
1.0603e-03 5.0719e-03 0.0000e+00
1.0583e-03 5.2106e-03 0.0000e+00
1.0563e-03 5.3498e-03 0.0000e+00
1.0543e-03 5.4893e-03 0.0000e+00
1.0524e-03 5.6293e-03 0.0000e+00
1.0507e-03 5.7697e-03 0.0000e+00
1.0492e-03 5.9114e-03 0.0000e+00
1.0480e-03 6.0526e-03 0.0000e+00
1.0470e-03 6.1941e-03 0.0000e+00
1.0463e-03 6.3359e-03 0.0000e+00
1.0456e-03 6.4779e-03 0.0000e+00
1.0448e-03 6.6202e-03 0.0000e+00
1.0439e-03 6.7626e-03 0.0000e+00
1.0428e-03 6.9052e-03 0.0000e+00
1.1923e-03 1.0271e-04 0.0000e+00
1.1935e-03 2.4515e-04 0.0000e+00
1.1944e-03 3.8751e-04 0.0000e+00
1.1952e-03 5.2958e-04 0.0000e+00
1.1960e-03 6.7154e-04 0.0000e+00
1.1969e-03 8.1321e-04 0.0000e+00
1.1981e-03 9.5409e-04 0.0000e+00
1.1995e-03 1.0950e-03 0.0000e+00
1.2012e-03 1.2365e-03 0.0000e+00
1.2031e-03 1.3768e-03 0.0000e+00
1.2051e-03 1.5167e-03 0.0000e+00
1.2072e-03 1.6562e-03 0.0000e+00
1.2094e-03 1.7953e-03 0.0000e+00
1.2116e-03 1.9341e-03 0.0000e+00
1.2138e-03 2.0724e-03 0.0000e+00
1.2159e-03 2.2103e-03 0.0000e+00
1.2179e-03 2.3477e-03 0.0000e+00
1.2198e-03 2.4848e-03 0.0000e+00
1.2216e-03 2.6215e-03 0.0000e+00
1.2231e-03 2.7578e-03 0.0000e+00
1.2244e-03 2.8938e-03 0.0000e+00
1.2255e-03 3.0296e-03 0.0000e+00
1.2264e-03 3.1651e-03 0.0000e+00
1.2269e-03 3.3005e-03 0.0000e+00
1.2272e-03 3.4358e-03 0.0000e+00
1.2272e-03 3.5721e-03 0.0000e+00
1.2269e-03 3.7074e-03 0.0000e+00
1.2264e-03 3.8428e-03 0.0000e+00
1.2255e-03 3.9783e-03 0.0000e+00
1.2244e-03 4.1141e-03 0.0000e+00
1.2231e-03 4.2501e-03 0.0000e+00
1.2216e-03 4.3864e-03 0.0000e+00
1.2199e-03 4.5231e-03 0.0000e+00
1.2180e-03 4.6601e-03 0.0000e+00
1.2160e-03 4.7976e-03 0.0000e+00
1.2138e-03 4.9355e-03 0.0000e+00
1.2117e-03 5.0738e-03 0.0000e+00
1.2095e-03 5.2125e-03 0.0000e+00
1.2073e-03 5.3516e-03 0.0000e+00
1.2052e-03 5.4911e-03 0.0000e+00
1.2032e-03 5.6310e-03 0.0000e+00
1.2013e-03 5.7712e-03 0.0000e+00
1.1996e-03 5.9128e-03 0.0000e+00
1.1982e-03 6.0537e-03 0.0000e+00
1.1970e-03 6.1950e-03 0.0000e+00
1.1960e-03 6.3366e-03 0.0000e+00
1.1952e-03 6.4785e-03 0.0000e+00
1.1943e-03 6.6206e-03 0.0000e+00
1.1934e-03 6.7629e-03 0.0000e+00
1.1922e-03 6.9054e-03 0.0000e+00
1.3428e-03 1.0253e-04 0.0000e+00
1.3441e-03 2.4482e-04 0.0000e+00
1.3451e-03 3.8703e-04 0.0000e+00
1.3460e-03 5.2895e-04 0.0000e+00
1.3470e-03 6.7070e-04 0.0000e+00
1.3481e-03 8.1215e-04 0.0000e+00
1.3495e-03 9.5278e-04 0.0000e+00
1.3511e-03 1.0935e-03 0.0000e+00
1.3529e-03 1.2348e-03 0.0000e+00
1.3549e-03 1.3749e-03 0.0000e+00
1.3570e-03 1.5147e-03 0.0000e+00
1.3593e-03 1.6542e-03 0.0000e+00
1.3616e-03 1.7933e-03 0.0000e+00
1.3640e-03 1.9321e-03 0.0000e+00
1.3663e-03 2.0705e-03 0.0000e+00
1.3686e-03 2.2085e-03 0.0000e+00
1.3708e-03 2.3460e-03 0.0000e+00
1.3729e-03 2.4832e-03 0.0000e+00
1.3748e-03 2.6200e-03 0.0000e+00
1.3765e-03 2.7566e-03 0.0000e+00
1.3780e-03 2.8928e-03 0.0000e+00
1.3792e-03 3.0287e-03 0.0000e+00
1.3801e-03 3.1645e-03 0.0000e+00
1.3807e-03 3.3002e-03 0.0000e+00
1.3810e-03 3.4357e-03 0.0000e+00
1.3811e-03 3.5722e-03 0.0000e+00
1.3807e-03 3.7077e-03 0.0000e+00
1.3801e-03 3.8434e-03 0.0000e+00
1.3792e-03 3.9792e-03 0.0000e+00
1.3780e-03 4.1151e-03 0.0000e+00
1.3765e-03 4.2513e-03 0.0000e+00
1.3748e-03 4.3878e-03 0.0000e+00
1.3729e-03 4.5247e-03 0.0000e+00
1.3709e-03 4.6618e-03 0.0000e+00
1.3687e-03 4.7994e-03 0.0000e+00
1.3664e-03 4.9374e-03 0.0000e+00
1.3640e-03 5.0757e-03 0.0000e+00
1.3617e-03 5.2145e-03 0.0000e+00
1.3593e-03 5.3536e-03 0.0000e+00
1.3571e-03 5.4931e-03 0.0000e+00
1.3550e-03 5.6329e-03 0.0000e+00
1.3530e-03 5.7730e-03 0.0000e+00
1.3512e-03 5.9143e-03 0.0000e+00
1.3495e-03 6.0551e-03 0.0000e+00
1.3481e-03 6.1961e-03 0.0000e+00
1.3469e-03 6.3375e-03 0.0000e+00
1.3459e-03 6.4791e-03 0.0000e+00
1.3450e-03 6.6211e-03 0.0000e+00
1.3440e-03 6.7632e-03 0.0000e+00
1.3427e-03 6.9055e-03 0.0000e+00
1.4925e-03 1.0237e-04 0.0000e+00
1.4937e-03 2.4451e-04 0.0000e+00
1.4949e-03 3.8655e-04 0.0000e+00
1.4960e-03 5.2826e-04 0.0000e+00
1.4972e-03 6.6976e-04 0.0000e+00
1.4985e-03 8.1092e-04 0.0000e+00
1.5001e-03 9.5129e-04 0.0000e+00
1.5018e-03 1.0918e-03 0.0000e+00
1.5037e-03 1.2330e-03 0.0000e+00
1.5057e-03 1.3729e-03 0.0000e+00
1.5079e-03 1.5127e-03 0.0000e+00
1.5103e-03 1.6521e-03 0.0000e+00
1.5127e-03 1.7913e-03 0.0000e+00
1.5152e-03 1.9300e-03 0.0000e+00
1.5177e-03 2.0685e-03 0.0000e+00
1.5202e-03 2.2065e-03 0.0000e+00
1.5226e-03 2.3442e-03 0.0000e+00
1.5248e-03 2.4815e-03 0.0000e+00