# vtk DataFile Version 3.0
VTK Example
ASCII
DATASET UNSTRUCTURED_GRID
POINTS 972 float 
0 -5.26478e-07 0.0
0.00286242 -2.467e-06 0.0
0.00286253 0.00461454 0.0
0 0.00461352 0.0
0.000144935 -1.05983e-06 0.0
0.000302113 -1.0951e-06 0.0
0.000455631 -1.07975e-06 0.0
0.000609575 -1.09239e-06 0.0
0.000764392 -1.10147e-06 0.0
0.000919936 -1.11678e-06 0.0
0.00107568 -1.1327e-06 0.0
0.00123256 -1.15915e-06 0.0
0.00139132 -1.18427e-06 0.0
0.00154984 -1.21558e-06 0.0
0.00170943 -1.2523e-06 0.0
0.00187021 -1.29574e-06 0.0
0.00203268 -1.33098e-06 0.0
0.00219713 -1.38403e-06 0.0
0.00236567 -1.5346e-06 0.0
0.00254761 -1.63886e-06 0.0
0.00291043 2.2075e-05 0.0
0.00292839 7.29947e-05 0.0
0.00294184 0.000144682 0.0
0.00295516 0.000225605 0.0
0.0029729 0.000312466 0.0
0.00299383 0.000401505 0.0
0.00301716 0.000491951 0.0
0.00304196 0.000583421 0.0
0.00306813 0.000676482 0.0
0.00309485 0.000769656 0.0
0.00312201 0.000863718 0.0
0.00314917 0.000958592 0.0
0.003176 0.00105432 0.0
0.00320209 0.00115085 0.0
0.00322714 0.00124819 0.0
0.00325081 0.00134628 0.0
0.00327286 0.0014451 0.0
0.00329302 0.0015446 0.0
0.0033111 0.00164472 0.0
0.00332692 0.0017454 0.0
0.00334033 0.00184658 0.0
0.0033512 0.00194816 0.0
0.00335945 0.00205007 0.0
0.00336499 0.00215222 0.0
0.00336779 0.00225451 0.0
0.0033678 0.00235754 0.0
0.00336503 0.00245983 0.0
0.00335951 0.00256197 0.0
0.00335128 0.00266389 0.0
0.00334043 0.00276548 0.0
0.00332704 0.00286666 0.0
0.00331124 0.00296735 0.0
0.00329317 0.00306748 0.0
0.00327302 0.00316699 0.0
0.00325099 0.00326583 0.0
0.00322732 0.00336393 0.0
0.00320227 0.00346129 0.0
0.00317617 0.00355784 0.0
0.00314933 0.00365358 0.0
0.00312215 0.00374847 0.0
0.00309498 0.00384255 0.0
0.00306825 0.00393574 0.0
0.00304206 0.00402881 0.0
0.00301725 0.00412028 0.0
0.00299385 0.00421096 0.0
0.00297294 0.00429992 0.0
0.00295524 0.0043867 0.0
0.00294194 0.00446758 0.0
0.00292851 0.00453918 0.0
0.00291054 0.00459006 0.0
0.00254757 0.00461371 0.0
0.0023656 0.00461361 0.0
0.00219705 0.00461346 0.0
0.0020326 0.00461341 0.0
0.00187013 0.00461337 0.0
0.00170935 0.00461333 0.0
0.00154976 0.00461329 0.0
0.00139125 0.00461326 0.0
0.00123248 0.00461323 0.0
0.00107559 0.00461321 0.0
0.000919823 0.00461319 0.0
0.000764234 0.00461318 0.0
0.000609324 0.00461316 0.0
0.000455304 0.00461315 0.0
0.00030211 0.00461316 0.0
0.000150178 0.00461309 0.0
0 0.00447433 0.0
0 0.00434 0.0
0 0.0042086 0.0
0 0.00407949 0.0
0 0.00395241 0.0
0 0.00382741 0.0
0 0.00370462 0.0
0 0.0035845 0.0
0 0.00346666 0.0
0 0.00335343 0.0
0 0.00324461 0.0
0 0.00314136 0.0
0 0.00304485 0.0
0 0.00295667 0.0
0 0.00287706 0.0
0 0.00280554 0.0
0 0.00274061 0.0
0 0.00268089 0.0
0 0.00262509 0.0
0 0.00257221 0.0
0 0.00252147 0.0
0 0.00247228 0.0
0 0.00242418 0.0
0 0.00237679 0.0
0 0.0023298 0.0
0 0.00228262 0.0
0 0.00223563 0.0
0 0.00218824 0.0
0 0.00214013 0.0
0 0.00209094 0.0
0 0.00204019 0.0
0 0.00198729 0.0
0 0.00193147 0.0
0 0.00187172 0.0
0 0.00180676 0.0
0 0.0017352 0.0
0 0.00165553 0.0
0 0.0015673 0.0
0 0.00147074 0.0
0 0.00136743 0.0
0 0.00125856 0.0
0 0.00114528 0.0
0 0.00102739 0.0
0 0.000907204 0.0
0 0.000784664 0.0
0 0.000659438 0.0
0 0.00053196 0.0
0 0.000402015 0.0
0 0.000268179 0.0
0 0.000126182 0.0
0.000149995 0.000133394 0.0
0.00015328 0.0002681 0.0
0.000155531 0.000401182 0.0
0.000157219 0.000531231 0.0
0.000158624 0.000658814 0.0
0.000160038 0.000784136 0.0
0.000161639 0.000906616 0.0
0.000163557 0.00102681 0.0
0.000165923 0.00114464 0.0
0.000168851 0.0012581 0.0
0.00017261 0.0013671 0.0
0.00017778 0.00147062 0.0
0.00018512 0.00156672 0.0
0.000194629 0.00165419 0.0
0.000205336 0.00173256 0.0
0.000215885 0.0018031 0.0
0.000225432 0.00186723 0.0
0.000233548 0.00192654 0.0
0.000240163 0.00198226 0.0
0.000245374 0.00203538 0.0
0.000249357 0.00208662 0.0
0.00025229 0.00213654 0.0
0.000254331 0.00218554 0.0
0.000255617 0.00223396 0.0
0.00025624 0.00228206 0.0
0.000256242 0.00233037 0.0
0.000255624 0.00237846 0.0
0.000254343 0.00242688 0.0
0.000252307 0.00247588 0.0
0.00024938 0.00252579 0.0
0.000245403 0.00257702 0.0
0.000240198 0.00263012 0.0
0.00023359 0.00268582 0.0
0.000225482 0.0027451 0.0
0.000215943 0.00280921 0.0
0.0002054 0.0028797 0.0
0.000194694 0.00295802 0.0
0.000185179 0.00304543 0.0
0.000177828 0.00314147 0.0
0.000172649 0.00324494 0.0
0.000168887 0.00335389 0.0
0.000165959 0.0034673 0.0
0.000163597 0.00358508 0.0
0.000161688 0.0037052 0.0
0.000160104 0.00382793 0.0
0.000158743 0.003953 0.0
0.000157491 0.00408016 0.0
0.000156219 0.00420941 0.0
0.000154772 0.00434094 0.0
0.000152892 0.00447531 0.0
0.000305423 0.000134783 0.0
0.000308013 0.000268208 0.0
0.00031115 0.000399984 0.0
0.000314229 0.000529792 0.0
0.000317079 0.000657419 0.0
0.000319998 0.000782646 0.0
0.00032328 0.000905002 0.0
0.000327176 0.00102485 0.0
0.000331929 0.00114231 0.0
0.000337804 0.00125508 0.0
0.000345578 0.00136314 0.0
0.000356857 0.0014645 0.0
0.000372683 0.00155729 0.0
0.000392016 0.00164052 0.0
0.00041237 0.00171548 0.0
0.000431792 0.00178376 0.0
0.000449031 0.00184715 0.0
0.000463605 0.00190695 0.0
0.000475462 0.00196411 0.0
0.000484811 0.00201934 0.0
0.000491966 0.00207313 0.0
0.000497252 0.00212587 0.0
0.00050095 0.00217785 0.0
0.000503281 0.00222932 0.0
0.00050441 0.00228049 0.0
0.000504416 0.00233192 0.0
0.000503297 0.00238309 0.0
0.000500976 0.00243456 0.0
0.000497289 0.00248653 0.0
0.000492013 0.00253926 0.0
0.00048487 0.00259304 0.0
0.000475532 0.00264826 0.0
0.000463689 0.00270541 0.0
0.000449128 0.00276517 0.0
0.000431902 0.00282854 0.0
0.00041249 0.00289679 0.0
0.000392143 0.0029717 0.0
0.000372804 0.00305488 0.0
0.000356961 0.00314761 0.0
0.000345661 0.0032489 0.0
0.000337877 0.00335691 0.0
0.000332003 0.00346963 0.0
0.000327257 0.00358703 0.0
0.000323383 0.00370681 0.0
0.000320141 0.0038294 0.0
0.000317344 0.00395436 0.0
0.000314781 0.00408156 0.0
0.000312204 0.00421089 0.0
0.000309332 0.00434252 0.0
0.000305965 0.0044766 0.0
0.000459917 0.00013423 0.0
0.000463695 0.000267422 0.0
0.000467437 0.000398604 0.0
0.000471495 0.000527875 0.0
0.000475709 0.000655232 0.0
0.000480218 0.000780291 0.0
0.000485318 0.000902261 0.0
0.000491347 0.00102164 0.0
0.000498733 0.00113827 0.0
0.000508031 0.00124988 0.0
0.000521161 0.00135547 0.0
0.000540678 0.0014526 0.0
0.000566201 0.00153956 0.0
0.000594229 0.00161774 0.0
0.000621794 0.00168913 0.0
0.00064693 0.00175589 0.0
0.000668831 0.0018194 0.0
0.00068727 0.00188064 0.0
0.000702412 0.0019402 0.0
0.000714539 0.00199845 0.0
0.000723978 0.00205568 0.0
0.000731085 0.00211212 0.0
0.000736156 0.00216795 0.0
0.000739411 0.00222335 0.0
0.000741004 0.00227849 0.0
0.000741012 0.00233391 0.0
0.000739435 0.00238905 0.0
0.000736196 0.00244444 0.0
0.00073114 0.00250027 0.0
0.000724047 0.00255669 0.0
0.000714624 0.00261392 0.0
0.000702513 0.00267216 0.0
0.000687387 0.0027317 0.0
0.000668965 0.00279292 0.0
0.00064708 0.00285641 0.0
0.00062196 0.00292314 0.0
0.000594407 0.00299449 0.0
0.000566383 0.00307263 0.0
0.000540846 0.00315953 0.0
0.000521301 0.00325659 0.0
0.000508148 0.00336211 0.0
0.000498847 0.00347367 0.0
0.000491473 0.00359024 0.0
0.000485477 0.00370954 0.0
0.000480443 0.00383174 0.0
0.000476108 0.00395656 0.0
0.000472165 0.00408365 0.0
0.000468254 0.00421297 0.0
0.000464154 0.00434439 0.0
0.000459794 0.00447784 0.0
0.000614454 0.000133253 0.0
0.000619258 0.000265845 0.0
0.000624059 0.000396716 0.0
0.000629043 0.000525537 0.0
0.000634502 0.000652462 0.0
0.000640641 0.000777038 0.0
0.000647709 0.000898505 0.0
0.000656128 0.00101703 0.0
0.00066655 0.0011325 0.0
0.000680458 0.00124183 0.0
0.000701611 0.00134303 0.0
0.000731422 0.00143341 0.0
0.000765589 0.00151423 0.0
0.000799829 0.00158808 0.0
0.000831435 0.00165762 0.0
0.000859427 0.00172435 0.0
0.000883517 0.00178924 0.0
0.000903871 0.00185278 0.0
0.00092077 0.00191526 0.0
0.000934561 0.00197687 0.0
0.000945535 0.00203775 0.0
0.000953951 0.00209801 0.0
0.000960062 0.00215779 0.0
0.000964048 0.00221721 0.0
0.000966022 0.00227642 0.0
0.000966032 0.00233596 0.0
0.000964079 0.00239516 0.0
0.000960112 0.00245458 0.0
0.00095402 0.00251435 0.0
0.000945623 0.00257461 0.0
0.000934668 0.00263547 0.0
0.000920896 0.00269708 0.0
0.000904016 0.00275955 0.0
0.000883681 0.00282307 0.0
0.00085961 0.00288794 0.0
0.000831637 0.00295465 0.0
0.000800048 0.00302416 0.0
0.000765821 0.00309797 0.0
0.000731656 0.00317875 0.0
0.000701821 0.00326905 0.0
0.000680629 0.00337018 0.0
0.000666707 0.00347945 0.0
0.000656296 0.00359486 0.0
0.00064792 0.00371331 0.0
0.000640927 0.00383503 0.0
0.000634933 0.00395945 0.0
0.000629557 0.00408633 0.0
0.000624418 0.00421532 0.0
0.000619324 0.00434627 0.0
0.000614294 0.00447893 0.0
0.000769734 0.000132258 0.0
0.000775275 0.000264102 0.0
0.00078104 0.000394375 0.0
0.000787142 0.000522744 0.0
0.000793882 0.00064908 0.0
0.000801716 0.000773027 0.0
0.000810937 0.000893594 0.0
0.000822074 0.00101102 0.0
0.00083648 0.00112444 0.0
0.000857654 0.00122963 0.0
0.000889963 0.00132354 0.0
0.000929152 0.0014068 0.0
0.000969101 0.0014827 0.0
0.00100614 0.00155461 0.0
0.00103919 0.00162416 0.0
0.00106799 0.00169233 0.0
0.00109283 0.00175949 0.0
0.001114 0.00182583 0.0
0.00113184 0.00189146 0.0
0.00114662 0.00195644 0.0
0.00115862 0.00202085 0.0
0.00116799 0.00208476 0.0
0.00117487 0.00214825 0.0
0.0011794 0.00221146 0.0
0.00118165 0.00227448 0.0
0.00118167 0.00233787 0.0
0.00117943 0.0024009 0.0
0.00117493 0.0024641 0.0
0.00116807 0.00252759 0.0
0.00115872 0.00259149 0.0
0.00114675 0.00265589 0.0
0.00113198 0.00272086 0.0
0.00111416 0.00278648 0.0
0.00109301 0.00285281 0.0
0.0010682 0.00291995 0.0
0.00103942 0.0029881 0.0
0.00100639 0.00305763 0.0
0.000969371 0.00312951 0.0
0.000929436 0.00320537 0.0
0.000890243 0.00328858 0.0
0.000857894 0.00338241 0.0
0.000836681 0.00348752 0.0
0.00082228 0.0036009 0.0
0.000811184 0.00371826 0.0
0.000802005 0.00383912 0.0
0.000794218 0.003963 0.0
0.000787413 0.00408934 0.0
0.000781153 0.00421781 0.0
0.000775239 0.00434807 0.0
0.000769603 0.00447993 0.0
0.000925721 0.000131308 0.0
0.000931883 0.000262299 0.0
0.000938523 0.000391863 0.0
[...]
POINT_DATA 972
VECTORS Position float
0.0000e+00 -5.2648e-07 0.0000e+00
2.8624e-03 -2.4670e-06 0.0000e+00
2.8625e-03 4.6145e-03 0.0000e+00
0.0000e+00 4.6135e-03 0.0000e+00
1.4493e-04 -1.0598e-06 0.0000e+00
3.0211e-04 -1.0951e-06 0.0000e+00
4.5563e-04 -1.0798e-06 0.0000e+00
6.0957e-04 -1.0924e-06 0.0000e+00
7.6439e-04 -1.1015e-06 0.0000e+00
9.1994e-04 -1.1168e-06 0.0000e+00
1.0757e-03 -1.1327e-06 0.0000e+00
1.2326e-03 -1.1592e-06 0.0000e+00
1.3913e-03 -1.1843e-06 0.0000e+00
1.5498e-03 -1.2156e-06 0.0000e+00
1.7094e-03 -1.2523e-06 0.0000e+00
1.8702e-03 -1.2957e-06 0.0000e+00
2.0327e-03 -1.3310e-06 0.0000e+00
2.1971e-03 -1.3840e-06 0.0000e+00
2.3657e-03 -1.5346e-06 0.0000e+00
2.5476e-03 -1.6389e-06 0.0000e+00
2.9104e-03 2.2075e-05 0.0000e+00
2.9284e-03 7.2995e-05 0.0000e+00
2.9418e-03 1.4468e-04 0.0000e+00
2.9552e-03 2.2560e-04 0.0000e+00
2.9729e-03 3.1247e-04 0.0000e+00
2.9938e-03 4.0150e-04 0.0000e+00
3.0172e-03 4.9195e-04 0.0000e+00
3.0420e-03 5.8342e-04 0.0000e+00
3.0681e-03 6.7648e-04 0.0000e+00
3.0949e-03 7.6966e-04 0.0000e+00
3.1220e-03 8.6372e-04 0.0000e+00
3.1492e-03 9.5859e-04 0.0000e+00
3.1760e-03 1.0543e-03 0.0000e+00
3.2021e-03 1.1509e-03 0.0000e+00
3.2271e-03 1.2482e-03 0.0000e+00
3.2508e-03 1.3463e-03 0.0000e+00
3.2729e-03 1.4451e-03 0.0000e+00
3.2930e-03 1.5446e-03 0.0000e+00
3.3111e-03 1.6447e-03 0.0000e+00
3.3269e-03 1.7454e-03 0.0000e+00
3.3403e-03 1.8466e-03 0.0000e+00
3.3512e-03 1.9482e-03 0.0000e+00
3.3594e-03 2.0501e-03 0.0000e+00
3.3650e-03 2.1522e-03 0.0000e+00
3.3678e-03 2.2545e-03 0.0000e+00
3.3678e-03 2.3575e-03 0.0000e+00
3.3650e-03 2.4598e-03 0.0000e+00
3.3595e-03 2.5620e-03 0.0000e+00
3.3513e-03 2.6639e-03 0.0000e+00
3.3404e-03 2.7655e-03 0.0000e+00
3.3270e-03 2.8667e-03 0.0000e+00
3.3112e-03 2.9673e-03 0.0000e+00
3.2932e-03 3.0675e-03 0.0000e+00
3.2730e-03 3.1670e-03 0.0000e+00
3.2510e-03 3.2658e-03 0.0000e+00
3.2273e-03 3.3639e-03 0.0000e+00
3.2023e-03 3.4613e-03 0.0000e+00
3.1762e-03 3.5578e-03 0.0000e+00
3.1493e-03 3.6536e-03 0.0000e+00
3.1222e-03 3.7485e-03 0.0000e+00
3.0950e-03 3.8426e-03 0.0000e+00
3.0682e-03 3.9357e-03 0.0000e+00
3.0421e-03 4.0288e-03 0.0000e+00
3.0173e-03 4.1203e-03 0.0000e+00
2.9938e-03 4.2110e-03 0.0000e+00
2.9729e-03 4.2999e-03 0.0000e+00
2.9552e-03 4.3867e-03 0.0000e+00
2.9419e-03 4.4676e-03 0.0000e+00
2.9285e-03 4.5392e-03 0.0000e+00
2.9105e-03 4.5901e-03 0.0000e+00
2.5476e-03 4.6137e-03 0.0000e+00
2.3656e-03 4.6136e-03 0.0000e+00
2.1970e-03 4.6135e-03 0.0000e+00
2.0326e-03 4.6134e-03 0.0000e+00
1.8701e-03 4.6134e-03 0.0000e+00
1.7094e-03 4.6133e-03 0.0000e+00
1.5498e-03 4.6133e-03 0.0000e+00
1.3912e-03 4.6133e-03 0.0000e+00
1.2325e-03 4.6132e-03 0.0000e+00
1.0756e-03 4.6132e-03 0.0000e+00
9.1982e-04 4.6132e-03 0.0000e+00
7.6423e-04 4.6132e-03 0.0000e+00
6.0932e-04 4.6132e-03 0.0000e+00
4.5530e-04 4.6132e-03 0.0000e+00
3.0211e-04 4.6132e-03 0.0000e+00
1.5018e-04 4.6131e-03 0.0000e+00
0.0000e+00 4.4743e-03 0.0000e+00
0.0000e+00 4.3400e-03 0.0000e+00
0.0000e+00 4.2086e-03 0.0000e+00
0.0000e+00 4.0795e-03 0.0000e+00
0.0000e+00 3.9524e-03 0.0000e+00
0.0000e+00 3.8274e-03 0.0000e+00
0.0000e+00 3.7046e-03 0.0000e+00
0.0000e+00 3.5845e-03 0.0000e+00
0.0000e+00 3.4667e-03 0.0000e+00
0.0000e+00 3.3534e-03 0.0000e+00
0.0000e+00 3.2446e-03 0.0000e+00
0.0000e+00 3.1414e-03 0.0000e+00
0.0000e+00 3.0449e-03 0.0000e+00
0.0000e+00 2.9567e-03 0.0000e+00
0.0000e+00 2.8771e-03 0.0000e+00
0.0000e+00 2.8055e-03 0.0000e+00
0.0000e+00 2.7406e-03 0.0000e+00
0.0000e+00 2.6809e-03 0.0000e+00
0.0000e+00 2.6251e-03 0.0000e+00
0.0000e+00 2.5722e-03 0.0000e+00
0.0000e+00 2.5215e-03 0.0000e+00
0.0000e+00 2.4723e-03 0.0000e+00
0.0000e+00 2.4242e-03 0.0000e+00
0.0000e+00 2.3768e-03 0.0000e+00
0.0000e+00 2.3298e-03 0.0000e+00
0.0000e+00 2.2826e-03 0.0000e+00
0.0000e+00 2.2356e-03 0.0000e+00
0.0000e+00 2.1882e-03 0.0000e+00
0.0000e+00 2.1401e-03 0.0000e+00
0.0000e+00 2.0909e-03 0.0000e+00
0.0000e+00 2.0402e-03 0.0000e+00
0.0000e+00 1.9873e-03 0.0000e+00
0.0000e+00 1.9315e-03 0.0000e+00
0.0000e+00 1.8717e-03 0.0000e+00
0.0000e+00 1.8068e-03 0.0000e+00
0.0000e+00 1.7352e-03 0.0000e+00
0.0000e+00 1.6555e-03 0.0000e+00
0.0000e+00 1.5673e-03 0.0000e+00
0.0000e+00 1.4707e-03 0.0000e+00
0.0000e+00 1.3674e-03 0.0000e+00
0.0000e+00 1.2586e-03 0.0000e+00
0.0000e+00 1.1453e-03 0.0000e+00
0.0000e+00 1.0274e-03 0.0000e+00
0.0000e+00 9.0720e-04 0.0000e+00
0.0000e+00 7.8466e-04 0.0000e+00
0.0000e+00 6.5944e-04 0.0000e+00
0.0000e+00 5.3196e-04 0.0000e+00
0.0000e+00 4.0201e-04 0.0000e+00
0.0000e+00 2.6818e-04 0.0000e+00
0.0000e+00 1.2618e-04 0.0000e+00
1.4999e-04 1.3339e-04 0.0000e+00
1.5328e-04 2.6810e-04 0.0000e+00
1.5553e-04 4.0118e-04 0.0000e+00
1.5722e-04 5.3123e-04 0.0000e+00
1.5862e-04 6.5881e-04 0.0000e+00
1.6004e-04 7.8414e-04 0.0000e+00
1.6164e-04 9.0662e-04 0.0000e+00
1.6356e-04 1.0268e-03 0.0000e+00
1.6592e-04 1.1446e-03 0.0000e+00
1.6885e-04 1.2581e-03 0.0000e+00
1.7261e-04 1.3671e-03 0.0000e+00
1.7778e-04 1.4706e-03 0.0000e+00
1.8512e-04 1.5667e-03 0.0000e+00
1.9463e-04 1.6542e-03 0.0000e+00
2.0534e-04 1.7326e-03 0.0000e+00
2.1588e-04 1.8031e-03 0.0000e+00
2.2543e-04 1.8672e-03 0.0000e+00
2.3355e-04 1.9265e-03 0.0000e+00
2.4016e-04 1.9823e-03 0.0000e+00
2.4537e-04 2.0354e-03 0.0000e+00
2.4936e-04 2.0866e-03 0.0000e+00
2.5229e-04 2.1365e-03 0.0000e+00
2.5433e-04 2.1855e-03 0.0000e+00
2.5562e-04 2.2340e-03 0.0000e+00
2.5624e-04 2.2821e-03 0.0000e+00
2.5624e-04 2.3304e-03 0.0000e+00
2.5562e-04 2.3785e-03 0.0000e+00
2.5434e-04 2.4269e-03 0.0000e+00
2.5231e-04 2.4759e-03 0.0000e+00
2.4938e-04 2.5258e-03 0.0000e+00
2.4540e-04 2.5770e-03 0.0000e+00
2.4020e-04 2.6301e-03 0.0000e+00
2.3359e-04 2.6858e-03 0.0000e+00
2.2548e-04 2.7451e-03 0.0000e+00
2.1594e-04 2.8092e-03 0.0000e+00
2.0540e-04 2.8797e-03 0.0000e+00
1.9469e-04 2.9580e-03 0.0000e+00
1.8518e-04 3.0454e-03 0.0000e+00
1.7783e-04 3.1415e-03 0.0000e+00
1.7265e-04 3.2449e-03 0.0000e+00
1.6889e-04 3.3539e-03 0.0000e+00
1.6596e-04 3.4673e-03 0.0000e+00
1.6360e-04 3.5851e-03 0.0000e+00
1.6169e-04 3.7052e-03 0.0000e+00
1.6010e-04 3.8279e-03 0.0000e+00
1.5874e-04 3.9530e-03 0.0000e+00
1.5749e-04 4.0802e-03 0.0000e+00
1.5622e-04 4.2094e-03 0.0000e+00
1.5477e-04 4.3409e-03 0.0000e+00
1.5289e-04 4.4753e-03 0.0000e+00
3.0542e-04 1.3478e-04 0.0000e+00
3.0801e-04 2.6821e-04 0.0000e+00
3.1115e-04 3.9998e-04 0.0000e+00
3.1423e-04 5.2979e-04 0.0000e+00
3.1708e-04 6.5742e-04 0.0000e+00
3.2000e-04 7.8265e-04 0.0000e+00
3.2328e-04 9.0500e-04 0.0000e+00
3.2718e-04 1.0248e-03 0.0000e+00
3.3193e-04 1.1423e-03 0.0000e+00
3.3780e-04 1.2551e-03 0.0000e+00
3.4558e-04 1.3631e-03 0.0000e+00
3.5686e-04 1.4645e-03 0.0000e+00
3.7268e-04 1.5573e-03 0.0000e+00
3.9202e-04 1.6405e-03 0.0000e+00
4.1237e-04 1.7155e-03 0.0000e+00
4.3179e-04 1.7838e-03 0.0000e+00
4.4903e-04 1.8472e-03 0.0000e+00
4.6361e-04 1.9069e-03 0.0000e+00
4.7546e-04 1.9641e-03 0.0000e+00
4.8481e-04 2.0193e-03 0.0000e+00
4.9197e-04 2.0731e-03 0.0000e+00
4.9725e-04 2.1259e-03 0.0000e+00
5.0095e-04 2.1778e-03 0.0000e+00
5.0328e-04 2.2293e-03 0.0000e+00
5.0441e-04 2.2805e-03 0.0000e+00
5.0442e-04 2.3319e-03 0.0000e+00
5.0330e-04 2.3831e-03 0.0000e+00
5.0098e-04 2.4346e-03 0.0000e+00
4.9729e-04 2.4865e-03 0.0000e+00
4.9201e-04 2.5393e-03 0.0000e+00
4.8487e-04 2.5930e-03 0.0000e+00
4.7553e-04 2.6483e-03 0.0000e+00
4.6369e-04 2.7054e-03 0.0000e+00
4.4913e-04 2.7652e-03 0.0000e+00
4.3190e-04 2.8285e-03 0.0000e+00
4.1249e-04 2.8968e-03 0.0000e+00
3.9214e-04 2.9717e-03 0.0000e+00
3.7280e-04 3.0549e-03 0.0000e+00
3.5696e-04 3.1476e-03 0.0000e+00
3.4566e-04 3.2489e-03 0.0000e+00
3.3788e-04 3.3569e-03 0.0000e+00
3.3200e-04 3.4696e-03 0.0000e+00
3.2726e-04 3.5870e-03 0.0000e+00
3.2338e-04 3.7068e-03 0.0000e+00
3.2014e-04 3.8294e-03 0.0000e+00
3.1734e-04 3.9544e-03 0.0000e+00
3.1478e-04 4.0816e-03 0.0000e+00
3.1220e-04 4.2109e-03 0.0000e+00
3.0933e-04 4.3425e-03 0.0000e+00
3.0597e-04 4.4766e-03 0.0000e+00
4.5992e-04 1.3423e-04 0.0000e+00
4.6370e-04 2.6742e-04 0.0000e+00
4.6744e-04 3.9860e-04 0.0000e+00
4.7149e-04 5.2788e-04 0.0000e+00
4.7571e-04 6.5523e-04 0.0000e+00
4.8022e-04 7.8029e-04 0.0000e+00
4.8532e-04 9.0226e-04 0.0000e+00
4.9135e-04 1.0216e-03 0.0000e+00
4.9873e-04 1.1383e-03 0.0000e+00
5.0803e-04 1.2499e-03 0.0000e+00
5.2116e-04 1.3555e-03 0.0000e+00
5.4068e-04 1.4526e-03 0.0000e+00
5.6620e-04 1.5396e-03 0.0000e+00
5.9423e-04 1.6177e-03 0.0000e+00
6.2179e-04 1.6891e-03 0.0000e+00
6.4693e-04 1.7559e-03 0.0000e+00
6.6883e-04 1.8194e-03 0.0000e+00
6.8727e-04 1.8806e-03 0.0000e+00
7.0241e-04 1.9402e-03 0.0000e+00
7.1454e-04 1.9984e-03 0.0000e+00
7.2398e-04 2.0557e-03 0.0000e+00
7.3109e-04 2.1121e-03 0.0000e+00
7.3616e-04 2.1679e-03 0.0000e+00
7.3941e-04 2.2233e-03 0.0000e+00
7.4100e-04 2.2785e-03 0.0000e+00
7.4101e-04 2.3339e-03 0.0000e+00
7.3944e-04 2.3890e-03 0.0000e+00
7.3620e-04 2.4444e-03 0.0000e+00
7.3114e-04 2.5003e-03 0.0000e+00
7.2405e-04 2.5567e-03 0.0000e+00
7.1462e-04 2.6139e-03 0.0000e+00
7.0251e-04 2.6722e-03 0.0000e+00
6.8739e-04 2.7317e-03 0.0000e+00
6.6896e-04 2.7929e-03 0.0000e+00
6.4708e-04 2.8564e-03 0.0000e+00
6.2196e-04 2.9231e-03 0.0000e+00
5.9441e-04 2.9945e-03 0.0000e+00
5.6638e-04 3.0726e-03 0.0000e+00
5.4085e-04 3.1595e-03 0.0000e+00
5.2130e-04 3.2566e-03 0.0000e+00
5.0815e-04 3.3621e-03 0.0000e+00
4.9885e-04 3.4737e-03 0.0000e+00
4.9147e-04 3.5902e-03 0.0000e+00
4.8548e-04 3.7095e-03 0.0000e+00
4.8044e-04 3.8317e-03 0.0000e+00
4.7611e-04 3.9566e-03 0.0000e+00
4.7216e-04 4.0837e-03 0.0000e+00
4.6825e-04 4.2130e-03 0.0000e+00
4.6415e-04 4.3444e-03 0.0000e+00
4.5979e-04 4.4778e-03 0.0000e+00
6.1445e-04 1.3325e-04 0.0000e+00
6.1926e-04 2.6585e-04 0.0000e+00
6.2406e-04 3.9672e-04 0.0000e+00
6.2904e-04 5.2554e-04 0.0000e+00
6.3450e-04 6.5246e-04 0.0000e+00
6.4064e-04 7.7704e-04 0.0000e+00
6.4771e-04 8.9851e-04 0.0000e+00
6.5613e-04 1.0170e-03 0.0000e+00
6.6655e-04 1.1325e-03 0.0000e+00
6.8046e-04 1.2418e-03 0.0000e+00
7.0161e-04 1.3430e-03 0.0000e+00
7.3142e-04 1.4334e-03 0.0000e+00
7.6559e-04 1.5142e-03 0.0000e+00
7.9983e-04 1.5881e-03 0.0000e+00
8.3144e-04 1.6576e-03 0.0000e+00
8.5943e-04 1.7243e-03 0.0000e+00
8.8352e-04 1.7892e-03 0.0000e+00
9.0387e-04 1.8528e-03 0.0000e+00
9.2077e-04 1.9153e-03 0.0000e+00
9.3456e-04 1.9769e-03 0.0000e+00
9.4553e-04 2.0378e-03 0.0000e+00
9.5395e-04 2.0980e-03 0.0000e+00
9.6006e-04 2.1578e-03 0.0000e+00
9.6405e-04 2.2172e-03 0.0000e+00
9.6602e-04 2.2764e-03 0.0000e+00
9.6603e-04 2.3360e-03 0.0000e+00
9.6408e-04 2.3952e-03 0.0000e+00
9.6011e-04 2.4546e-03 0.0000e+00
9.5402e-04 2.5144e-03 0.0000e+00
9.4562e-04 2.5746e-03 0.0000e+00
9.3467e-04 2.6355e-03 0.0000e+00
9.2090e-04 2.6971e-03 0.0000e+00
9.0402e-04 2.7595e-03 0.0000e+00
8.8368e-04 2.8231e-03 0.0000e+00
8.5961e-04 2.8879e-03 0.0000e+00
8.3164e-04 2.9546e-03 0.0000e+00
8.0005e-04 3.0242e-03 0.0000e+00
7.6582e-04 3.0980e-03 0.0000e+00
7.3166e-04 3.1787e-03 0.0000e+00
7.0182e-04 3.2690e-03 0.0000e+00
6.8063e-04 3.3702e-03 0.0000e+00
6.6671e-04 3.4794e-03 0.0000e+00
6.5630e-04 3.5949e-03 0.0000e+00
6.4792e-04 3.7133e-03 0.0000e+00
6.4093e-04 3.8350e-03 0.0000e+00
6.3493e-04 3.9595e-03 0.0000e+00
6.2956e-04 4.0863e-03 0.0000e+00
6.2442e-04 4.2153e-03 0.0000e+00
6.1932e-04 4.3463e-03 0.0000e+00
6.1429e-04 4.4789e-03 0.0000e+00
7.6973e-04 1.3226e-04 0.0000e+00
7.7527e-04 2.6410e-04 0.0000e+00
7.8104e-04 3.9438e-04 0.0000e+00
7.8714e-04 5.2274e-04 0.0000e+00
7.9388e-04 6.4908e-04 0.0000e+00
8.0172e-04 7.7303e-04 0.0000e+00
8.1094e-04 8.9359e-04 0.0000e+00
8.2207e-04 1.0110e-03 0.0000e+00
8.3648e-04 1.1244e-03 0.0000e+00
8.5765e-04 1.2296e-03 0.0000e+00
8.8996e-04 1.3235e-03 0.0000e+00
9.2915e-04 1.4068e-03 0.0000e+00
9.6910e-04 1.4827e-03 0.0000e+00
1.0061e-03 1.5546e-03 0.0000e+00
1.0392e-03 1.6242e-03 0.0000e+00
1.0680e-03 1.6923e-03 0.0000e+00
1.0928e-03 1.7595e-03 0.0000e+00
1.1140e-03 1.8258e-03 0.0000e+00
1.1318e-03 1.8915e-03 0.0000e+00
1.1466e-03 1.9564e-03 0.0000e+00
1.1586e-03 2.0208e-03 0.0000e+00
1.1680e-03 2.0848e-03 0.0000e+00
1.1749e-03 2.1483e-03 0.0000e+00
1.1794e-03 2.2115e-03 0.0000e+00
1.1817e-03 2.2745e-03 0.0000e+00
1.1817e-03 2.3379e-03 0.0000e+00
1.1794e-03 2.4009e-03 0.0000e+00
1.1749e-03 2.4641e-03 0.0000e+00
1.1681e-03 2.5276e-03 0.0000e+00
1.1587e-03 2.5915e-03 0.0000e+00
1.1467e-03 2.6559e-03 0.0000e+00
1.1320e-03 2.7209e-03 0.0000e+00
1.1142e-03 2.7865e-03 0.0000e+00
1.0930e-03 2.8528e-03 0.0000e+00
1.0682e-03 2.9199e-03 0.0000e+00
1.0394e-03 2.9881e-03 0.0000e+00
1.0064e-03 3.0576e-03 0.0000e+00
9.6937e-04 3.1295e-03 0.0000e+00
9.2944e-04 3.2054e-03 0.0000e+00
8.9024e-04 3.2886e-03 0.0000e+00
8.5789e-04 3.3824e-03 0.0000e+00
8.3668e-04 3.4875e-03 0.0000e+00
8.2228e-04 3.6009e-03 0.0000e+00
8.1118e-04 3.7183e-03 0.0000e+00
8.0200e-04 3.8391e-03 0.0000e+00
7.9422e-04 3.9630e-03 0.0000e+00
7.8741e-04 4.0893e-03 0.0000e+00
7.8115e-04 4.2178e-03 0.0000e+00
7.7524e-04 4.3481e-03 0.0000e+00
7.6960e-04 4.4799e-03 0.0000e+00
9.2572e-04 1.3131e-04 0.0000e+00
9.3188e-04 2.6230e-04 0.0000e+00
9.3852e-04 3.9186e-04 0.0000e+00
9.4573e-04 5.1951e-04 0.0000e+00
9.5392e-04 6.4515e-04 0.0000e+00
9.6361e-04 7.6813e-04 0.0000e+00
9.7522e-04 8.8757e-04 0.0000e+00
9.8976e-04 1.0031e-03 0.0000e+00
1.0103e-03 1.1129e-03 0.0000e+00
1.0431e-03 1.2107e-03 0.0000e+00
1.0862e-03 1.2964e-03 0.0000e+00
1.1312e-03 1.3740e-03 0.0000e+00
1.1730e-03 1.4479e-03 0.0000e+00
1.2103e-03 1.5199e-03 0.0000e+00
1.2431e-03 1.5911e-03 0.0000e+00
1.2717e-03 1.6615e-03 0.0000e+00
1.2966e-03 1.7314e-03 0.0000e+00
1.3181e-03 1.8007e-03 0.0000e+00
1.3365e-03 1.8694e-03 0.0000e+00
1.3520e-03 1.9376e-03 0.0000e+00
1.3647e-03 2.0053e-03 0.0000e+00
1.3748e-03 2.0726e-03 0.0000e+00
1.3822e-03 2.1395e-03 0.0000e+00
1.3872e-03 2.2062e-03 0.0000e+00
1.3897e-03 2.2727e-03 0.0000e+00
1.3897e-03 2.3396e-03 0.0000e+00
1.3872e-03 2.4061e-03 0.0000e+00
1.3823e-03 2.4728e-03 0.0000e+00
1.3749e-03 2.5397e-03 0.0000e+00
1.3648e-03 2.6070e-03 0.0000e+00
1.3521e-03 2.6747e-03 0.0000e+00
1.3367e-03 2.7429e-03 0.0000e+00
1.3183e-03 2.8116e-03 0.0000e+00
1.2968e-03 2.8809e-03 0.0000e+00
1.2719e-03 2.9507e-03 0.0000e+00
1.2433e-03 3.0212e-03 0.0000e+00
1.2106e-03 3.0923e-03 0.0000e+00
1.1733e-03 3.1643e-03 0.0000e+00
1.1315e-03 3.2382e-03 0.0000e+00
1.0865e-03 3.3158e-03 0.0000e+00
1.0434e-03 3.4014e-03 0.0000e+00
1.0106e-03 3.4991e-03 0.0000e+00
9.9000e-04 3.6088e-03 0.0000e+00
9.7548e-04 3.7243e-03 0.0000e+00
9.6384e-04 3.8441e-03 0.0000e+00
9.5412e-04 3.9670e-03 0.0000e+00
9.4585e-04 4.0927e-03 0.0000e+00
9.3854e-04 4.2204e-03 0.0000e+00
9.3182e-04 4.3499e-03 0.0000e+00
9.2562e-04 4.4809e-03 0.0000e+00
1.0819e-03 1.3035e-04 0.0000e+00
1.0887e-03 2.6048e-04 0.0000e+00
1.0961e-03 3.8917e-04 0.0000e+00
1.1045e-03 5.1599e-04 0.0000e+00
1.1143e-03 6.4058e-04 0.0000e+00
1.1261e-03 7.6238e-04 0.0000e+00
1.1406e-03 8.8005e-04 0.0000e+00
1.1601e-03 9.9257e-04 0.0000e+00
1.1916e-03 1.0951e-03 0.0000e+00
1.2372e-03 1.1835e-03 0.0000e+00
1.2867e-03 1.2626e-03 0.0000e+00
1.3328e-03 1.3381e-03 0.0000e+00
1.3738e-03 1.4123e-03 0.0000e+00
1.4099e-03 1.4862e-03 0.0000e+00
1.4417e-03 1.5596e-03 0.0000e+00
1.4699e-03 1.6327e-03 0.0000e+00
1.4947e-03 1.7054e-03 0.0000e+00
1.5164e-03 1.7775e-03 0.0000e+00
1.5352e-03 1.8491e-03 0.0000e+00
1.5512e-03 1.9203e-03 0.0000e+00
1.5644e-03 1.9910e-03 0.0000e+00
1.5750e-03 2.0614e-03 0.0000e+00
1.5829e-03 2.1315e-03 0.0000e+00
1.5882e-03 2.2014e-03 0.0000e+00
1.5908e-03 2.2711e-03 0.0000e+00
1.5908e-03 2.3412e-03 0.0000e+00
1.5882e-03 2.4110e-03 0.0000e+00
1.5830e-03 2.4808e-03 0.0000e+00
1.5751e-03 2.5509e-03 0.0000e+00
1.5645e-03 2.6213e-03 0.0000e+00
1.5513e-03 2.6920e-03 0.0000e+00
1.5353e-03 2.7631e-03 0.0000e+00
1.5166e-03 2.8348e-03 0.0000e+00
1.4949e-03 2.9069e-03 0.0000e+00
1.4701e-03 2.9795e-03 0.0000e+00
1.4420e-03 3.0526e-03 0.0000e+00
1.4102e-03 3.1261e-03 0.0000e+00
1.3742e-03 3.1999e-03 0.0000e+00
1.3331e-03 3.2741e-03 0.0000e+00
1.2871e-03 3.3496e-03 0.0000e+00
1.2375e-03 3.4286e-03 0.0000e+00
1.1919e-03 3.5169e-03 0.0000e+00
1.1603e-03 3.6194e-03 0.0000e+00
1.1408e-03 3.7319e-03 0.0000e+00
1.1262e-03 3.8499e-03 0.0000e+00
1.1144e-03 3.9717e-03 0.0000e+00
1.1046e-03 4.0962e-03 0.0000e+00
1.0961e-03 4.2231e-03 0.0000e+00
1.0886e-03 4.3517e-03 0.0000e+00
1.0818e-03 4.4818e-03 0.0000e+00
1.2392e-03 1.2938e-04 0.0000e+00
1.2466e-03 2.5855e-04 0.0000e+00
1.2550e-03 3.8630e-04 0.0000e+00
1.2647e-03 5.1198e-04 0.0000e+00
1.2763e-03 6.3533e-04 0.0000e+00
1.2906e-03 7.5536e-04 0.0000e+00
1.3091e-03 8.7034e-04 0.0000e+00
1.3380e-03 9.7627e-04 0.0000e+00
1.3843e-03 1.0685e-03 0.0000e+00
1.4379e-03 1.1487e-03 0.0000e+00
1.4879e-03 1.2254e-03 0.0000e+00
1.5323e-03 1.3013e-03 0.0000e+00
1.5711e-03 1.3775e-03 0.0000e+00
1.6056e-03 1.4537e-03 0.0000e+00
1.6364e-03 1.5298e-03 0.0000e+00
1.6640e-03 1.6056e-03 0.0000e+00
1.6887e-03 1.6809e-03 0.0000e+00
1.7106e-03 1.7557e-03 0.0000e+00
1.7298e-03 1.8301e-03 0.0000e+00
1.7462e-03 1.9040e-03 0.0000e+00
1.7598e-03 1.9776e-03 0.0000e+00
1.7708e-03 2.0509e-03 0.0000e+00
1.7790e-03 2.1239e-03 0.0000e+00
1.7845e-03 2.1968e-03 0.0000e+00
1.7873e-03 2.2695e-03 0.0000e+00
1.7873e-03 2.3427e-03 0.0000e+00
1.7846e-03 2.4155e-03 0.0000e+00
1.7791e-03 2.4883e-03 0.0000e+00
1.7709e-03 2.5614e-03 0.0000e+00
1.7600e-03 2.6346e-03 0.0000e+00
1.7463e-03 2.7082e-03 0.0000e+00
1.7299e-03 2.7822e-03 0.0000e+00
1.7108e-03 2.8566e-03 0.0000e+00
1.6890e-03 2.9314e-03 0.0000e+00
1.6643e-03 3.0067e-03 0.0000e+00
1.6367e-03 3.0824e-03 0.0000e+00
1.6059e-03 3.1585e-03 0.0000e+00
1.5714e-03 3.2347e-03 0.0000e+00
1.5326e-03 3.3108e-03 0.0000e+00
1.4883e-03 3.3868e-03 0.0000e+00
1.4383e-03 3.4634e-03 0.0000e+00
1.3847e-03 3.5437e-03 0.0000e+00
1.3383e-03 3.6358e-03 0.0000e+00
1.3094e-03 3.7417e-03 0.0000e+00
1.2907e-03 3.8570e-03 0.0000e+00
1.2763e-03 3.9769e-03 0.0000e+00
1.2647e-03 4.1002e-03 0.0000e+00
1.2550e-03 4.2259e-03 0.0000e+00
1.2466e-03 4.3536e-03 0.0000e+00
1.2391e-03 4.4828e-03 0.0000e+00
1.3984e-03 1.2832e-04 0.0000e+00
1.4066e-03 2.5647e-04 0.0000e+00
1.4160e-03 3.8303e-04 0.0000e+00
1.4272e-03 5.0740e-04 0.0000e+00
1.4410e-03 6.2894e-04 0.0000e+00
1.4588e-03 7.4645e-04 0.0000e+00
1.4851e-03 8.5563e-04 0.0000e+00
1.5296e-03 9.5051e-04 0.0000e+00
1.5865e-03 1.0324e-03 0.0000e+00
1.6403e-03 1.1096e-03 0.0000e+00
1.6875e-03 1.1869e-03 0.0000e+00
1.7285e-03 1.2651e-03 0.0000e+00
1.7651e-03 1.3438e-03 0.0000e+00
1.7982e-03 1.4227e-03 0.0000e+00
1.8282e-03 1.5013e-03 0.0000e+00
1.8555e-03 1.5795e-03 0.0000e+00
1.8802e-03 1.6574e-03 0.0000e+00
1.9022e-03 1.7347e-03 0.0000e+00
1.9216e-03 1.8117e-03 0.0000e+00
1.9383e-03 1.8884e-03 0.0000e+00
1.9523e-03 1.9647e-03 0.0000e+00
1.9635e-03 2.0408e-03 0.0000e+00
1.9720e-03 2.1166e-03 0.0000e+00
1.9776e-03 2.1924e-03 0.0000e+00
1.9805e-03 2.2681e-03 0.0000e+00
1.9805e-03 2.3442e-03 0.0000e+00
1.9777e-03 2.4199e-03 0.0000e+00
1.9720e-03 2.4956e-03 0.0000e+00
1.9636e-03 2.5715e-03 0.0000e+00
1.9524e-03 2.6476e-03 0.0000e+00
1.9384e-03 2.7239e-03 0.0000e+00
1.9218e-03 2.8005e-03 0.0000e+00
1.9024e-03 2.8775e-03 0.0000e+00
1.8804e-03 2.9549e-03 0.0000e+00
1.8558e-03 3.0327e-03 0.0000e+00
1.8285e-03 3.1109e-03 0.0000e+00
1.7985e-03 3.1895e-03 0.0000e+00
1.7655e-03 3.2684e-03 0.0000e+00
1.7289e-03 3.3471e-03 0.0000e+00
1.6878e-03 3.4253e-03 0.0000e+00
1.6406e-03 3.5026e-03 0.0000e+00
1.5869e-03 3.5798e-03 0.0000e+00
1.5299e-03 3.6616e-03 0.0000e+00
1.4853e-03 3.7564e-03 0.0000e+00
1.4588e-03 3.8659e-03 0.0000e+00
1.4411e-03 3.9833e-03 0.0000e+00
1.4272e-03 4.1048e-03 0.0000e+00
1.4160e-03 4.2292e-03 0.0000e+00
1.4065e-03 4.3557e-03 0.0000e+00
1.3983e-03 4.4838e-03 0.0000e+00
1.5575e-03 1.2717e-04 0.0000e+00
1.5665e-03 2.5408e-04 0.0000e+00
1.5773e-03 3.7929e-04 0.0000e+00
1.5904e-03 5.0184e-04 0.0000e+00
1.6071e-03 6.2096e-04 0.0000e+00
1.6312e-03 7.3337e-04 0.0000e+00
1.6725e-03 8.3127e-04 0.0000e+00
1.7308e-03 9.1362e-04 0.0000e+00
1.7881e-03 9.9137e-04 0.0000e+00
1.8378e-03 1.0694e-03 0.0000e+00
1.8807e-03 1.1492e-03 0.0000e+00
1.9188e-03 1.2302e-03 0.0000e+00
1.9535e-03 1.3115e-03 0.0000e+00
1.9855e-03 1.3928e-03 0.0000e+00
2.0150e-03 1.4738e-03 0.0000e+00
2.0420e-03 1.5543e-03 0.0000e+00
2.0667e-03 1.6345e-03 0.0000e+00
2.0888e-03 1.7144e-03 0.0000e+00