# vtk DataFile Version 3.0
VTK Example
ASCII
DATASET UNSTRUCTURED_GRID
POINTS 972 float 
0 -1.98318e-05 0.0
0.00259993 -2.04825e-05 0.0
0.00259993 0.00657681 0.0
0 0.00657676 0.0
0.000144919 -2.02108e-05 0.0
0.000298341 -2.02386e-05 0.0
0.000448633 -2.02372e-05 0.0
0.000598942 -2.02494e-05 0.0
0.00074973 -2.02598e-05 0.0
0.00090087 -2.02704e-05 0.0
0.00105183 -2.02796e-05 0.0
0.00120354 -2.02931e-05 0.0
0.00135662 -2.03044e-05 0.0
0.00150901 -2.03152e-05 0.0
0.00166177 -2.03279e-05 0.0
0.00181493 -2.0341e-05 0.0
0.00196859 -2.03541e-05 0.0
0.00212289 -2.0366e-05 0.0
0.0022783 -2.03837e-05 0.0
0.00243586 -2.03709e-05 0.0
0.00260612 0.000103941 0.0
0.00261092 0.00023222 0.0
0.00261602 0.000362617 0.0
0.00262102 0.000493393 0.0
0.00262609 0.000624466 0.0
0.00263121 0.00075547 0.0
0.00263642 0.0008859 0.0
0.00264174 0.00101649 0.0
0.00264725 0.00114775 0.0
0.00265285 0.00127791 0.0
0.0026585 0.00140788 0.0
0.00266414 0.00153768 0.0
0.00266968 0.00166732 0.0
0.00267506 0.00179681 0.0
0.00268021 0.00192616 0.0
0.00268507 0.00205537 0.0
0.00268958 0.00218445 0.0
0.00269371 0.0023134 0.0
0.0026974 0.00244224 0.0
0.00270062 0.00257098 0.0
0.00270335 0.00269962 0.0
0.00270557 0.00282818 0.0
0.00270724 0.00295668 0.0
0.00270837 0.00308513 0.0
0.00270894 0.00321355 0.0
0.00270894 0.00334284 0.0
0.00270839 0.00347126 0.0
0.00270727 0.00359971 0.0
0.00270561 0.0037282 0.0
0.00270341 0.00385676 0.0
0.0027007 0.0039854 0.0
0.00269748 0.00411413 0.0
0.0026938 0.00424297 0.0
0.00268969 0.00437193 0.0
0.00268518 0.00450101 0.0
0.00268033 0.00463022 0.0
0.00267518 0.00475957 0.0
0.0026698 0.00488906 0.0
0.00266426 0.00501871 0.0
0.00265862 0.00514851 0.0
0.00265295 0.00527849 0.0
0.00264735 0.00540865 0.0
0.00264182 0.00553992 0.0
0.00263648 0.0056705 0.0
0.00263125 0.00580128 0.0
0.00262612 0.00593219 0.0
0.00262103 0.00606317 0.0
0.00261602 0.00619393 0.0
0.00261093 0.00632423 0.0
0.00260611 0.00645249 0.0
0.00243583 0.0065767 0.0
0.00227826 0.00657671 0.0
0.00212284 0.0065767 0.0
0.00196854 0.00657668 0.0
0.00181488 0.00657667 0.0
0.00166172 0.00657666 0.0
0.00150896 0.00657665 0.0
0.00135657 0.00657664 0.0
0.00120349 0.00657662 0.0
0.00105176 0.00657661 0.0
0.000900769 0.0065766 0.0
0.000749569 0.00657659 0.0
0.000598669 0.00657658 0.0
0.000448225 0.00657657 0.0
0.00029813 0.00657656 0.0
0.0001487 0.00657652 0.0
0 0.00643375 0.0
0 0.00629308 0.0
0 0.00615389 0.0
0 0.0060157 0.0
0 0.00587834 0.0
0 0.00574179 0.0
0 0.00560612 0.0
0 0.00547144 0.0
0 0.00533699 0.0
0 0.00520471 0.0
0 0.00507377 0.0
0 0.0049442 0.0
0 0.00481596 0.0
0 0.00468897 0.0
0 0.0045631 0.0
0 0.0044382 0.0
0 0.00431414 0.0
0 0.00419079 0.0
0 0.00406803 0.0
0 0.00394578 0.0
0 0.00382393 0.0
0 0.00370243 0.0
0 0.00358117 0.0
0 0.00346011 0.0
0 0.00333915 0.0
0 0.0032174 0.0
0 0.00309644 0.0
0 0.00297537 0.0
0 0.00285411 0.0
0 0.00273259 0.0
0 0.00261074 0.0
0 0.00248847 0.0
0 0.0023657 0.0
0 0.00224232 0.0
0 0.00211824 0.0
0 0.00199333 0.0
0 0.00186744 0.0
0 0.00174042 0.0
0 0.00161215 0.0
0 0.00148254 0.0
0 0.00135157 0.0
0 0.00121926 0.0
0 0.00108477 0.0
0 0.000950046 0.0
0 0.000814677 0.0
0 0.000677915 0.0
0 0.000540171 0.0
0 0.000401224 0.0
0 0.000260157 0.0
0 0.000114315 0.0
0.000148102 0.000119366 0.0
0.000149777 0.000260304 0.0
0.000150873 0.000400879 0.0
0.000151676 0.000539812 0.0
0.000152254 0.000677589 0.0
0.00015277 0.000814367 0.0
0.000153315 0.000949722 0.0
0.000153928 0.00108442 0.0
0.000154626 0.00121888 0.0
0.000155391 0.00135115 0.0
0.000156198 0.00148208 0.0
0.00015701 0.00161165 0.0
0.000157794 0.00173988 0.0
0.000158519 0.00186689 0.0
0.000159163 0.00199279 0.0
0.000159723 0.00211773 0.0
0.000160202 0.00224185 0.0
0.000160612 0.00236528 0.0
0.000160962 0.00248811 0.0
0.000161256 0.00261044 0.0
0.000161498 0.00273235 0.0
0.000161691 0.00285392 0.0
0.000161836 0.00297523 0.0
0.000161933 0.00309636 0.0
0.000161982 0.00321737 0.0
0.000161983 0.00333917 0.0
0.000161935 0.00346019 0.0
0.00016184 0.00358131 0.0
0.000161697 0.00370261 0.0
0.000161505 0.00382418 0.0
0.000161264 0.00394608 0.0
0.000160971 0.00406839 0.0
0.000160622 0.00419121 0.0
0.000160214 0.00431462 0.0
0.000159736 0.00443872 0.0
0.000159178 0.00456364 0.0
0.000158534 0.00468952 0.0
0.000157811 0.00481649 0.0
0.000157028 0.0049447 0.0
0.000156217 0.00507423 0.0
0.000155411 0.00520513 0.0
0.000154647 0.00533737 0.0
0.000153952 0.00547179 0.0
0.000153345 0.00560644 0.0
0.000152816 0.00574209 0.0
0.000152346 0.00587864 0.0
0.000151903 0.00601602 0.0
0.000151419 0.00615425 0.0
0.000150793 0.00629352 0.0
0.000149901 0.00643418 0.0
0.000299619 0.000120888 0.0
0.000300478 0.000260881 0.0
0.000301839 0.000400391 0.0
0.000303221 0.000539119 0.0
0.000304382 0.000676919 0.0
0.000305449 0.000813691 0.0
0.000306559 0.000949003 0.0
0.000307801 0.00108362 0.0
0.000309205 0.00121798 0.0
0.000310734 0.00135015 0.0
0.000312342 0.00148098 0.0
0.000313951 0.00161047 0.0
0.000315493 0.00173868 0.0
0.00031691 0.00186569 0.0
0.000318171 0.00199165 0.0
0.000319271 0.00211668 0.0
0.000320218 0.0022409 0.0
0.000321031 0.00236444 0.0
0.000321726 0.00248738 0.0
0.000322316 0.00260983 0.0
0.000322804 0.00273186 0.0
0.000323191 0.00285354 0.0
0.000323482 0.00297496 0.0
0.000323677 0.0030962 0.0
0.000323776 0.00321732 0.0
0.000323777 0.00333923 0.0
0.000323682 0.00346035 0.0
0.00032349 0.00358158 0.0
0.000323202 0.00370299 0.0
0.000322817 0.00382467 0.0
0.000322332 0.00394668 0.0
0.000321745 0.00406912 0.0
0.000321052 0.00419205 0.0
0.000320242 0.00431557 0.0
0.000319297 0.00443977 0.0
0.0003182 0.00456478 0.0
0.00031694 0.00469071 0.0
0.000315525 0.0048177 0.0
0.000313986 0.00494587 0.0
0.000312379 0.00507533 0.0
0.000310774 0.00520614 0.0
0.000309248 0.00533827 0.0
0.00030785 0.00547259 0.0
0.000306624 0.00560715 0.0
0.000305551 0.00574275 0.0
0.000304589 0.00587927 0.0
0.000303666 0.00601667 0.0
0.000302665 0.00615498 0.0
0.00030143 0.00629433 0.0
0.000299868 0.00643485 0.0
0.000450454 0.000120881 0.0
0.000451891 0.000260856 0.0
0.000453322 0.000399948 0.0
0.000454968 0.000538255 0.0
0.000456634 0.000675906 0.0
0.00045827 0.000812615 0.0
0.000459982 0.000947829 0.0
0.000461878 0.00108231 0.0
0.000464002 0.0012165 0.0
0.000466291 0.0013485 0.0
0.000468675 0.00147919 0.0
0.000471038 0.00160859 0.0
0.000473287 0.00173676 0.0
0.000475349 0.00186381 0.0
0.000477191 0.00198986 0.0
0.000478805 0.00211502 0.0
0.000480207 0.0022394 0.0
0.000481416 0.00236311 0.0
0.000482457 0.00248624 0.0
0.000483343 0.00260887 0.0
0.000484079 0.00273108 0.0
0.000484664 0.00285294 0.0
0.000485103 0.00297453 0.0
0.000485397 0.00309594 0.0
0.000485546 0.00321723 0.0
0.000485548 0.00333931 0.0
0.000485404 0.0034606 0.0
0.000485114 0.003582 0.0
0.000484679 0.00370359 0.0
0.000484098 0.00382545 0.0
0.000483367 0.00394764 0.0
0.000482484 0.00407026 0.0
0.000481448 0.00419337 0.0
0.000480242 0.00431706 0.0
0.000478844 0.00444143 0.0
0.000477233 0.00456657 0.0
0.000475395 0.00469259 0.0
0.000473336 0.00481962 0.0
0.00047109 0.00494776 0.0
0.000468731 0.00507713 0.0
0.000466351 0.00520778 0.0
0.000464068 0.00533975 0.0
0.000461955 0.00547389 0.0
0.000460087 0.00560832 0.0
0.000458439 0.00574381 0.0
0.000456949 0.00588028 0.0
0.000455507 0.00601767 0.0
0.00045397 0.00615601 0.0
0.000452222 0.00629529 0.0
0.000450255 0.0064355 0.0
0.000601087 0.000120417 0.0
0.000603088 0.000260185 0.0
0.000604959 0.000399183 0.0
0.000606854 0.000537244 0.0
0.000608903 0.000674634 0.0
0.000611084 0.00081116 0.0
0.000613423 0.000946207 0.0
0.000616005 0.00108048 0.0
0.00061886 0.00121444 0.0
0.000621891 0.00134621 0.0
0.000625004 0.00147672 0.0
0.000628058 0.00160601 0.0
0.000630943 0.00173416 0.0
0.000633588 0.00186127 0.0
0.000635961 0.00198745 0.0
0.000638058 0.0021128 0.0
0.000639896 0.0022374 0.0
0.000641495 0.00236133 0.0
0.000642875 0.0024847 0.0
0.000644057 0.00260756 0.0
0.000645042 0.00273001 0.0
0.000645827 0.00285211 0.0
0.000646417 0.00297394 0.0
0.000646811 0.00309559 0.0
0.00064701 0.00321711 0.0
0.000647013 0.00333943 0.0
0.00064682 0.00346095 0.0
0.000646431 0.00358259 0.0
0.000645847 0.00370441 0.0
0.000645067 0.00382651 0.0
0.000644088 0.00394894 0.0
0.000642912 0.0040718 0.0
0.000641536 0.00419515 0.0
0.000639943 0.00431907 0.0
0.00063811 0.00444365 0.0
0.000636017 0.00456897 0.0
0.000633649 0.00469513 0.0
0.000631008 0.00482221 0.0
0.000628127 0.00495034 0.0
0.000625078 0.0050796 0.0
0.000621971 0.00521007 0.0
0.000618948 0.00534181 0.0
0.000616111 0.00547572 0.0
0.000613569 0.00560994 0.0
0.000611307 0.00574528 0.0
0.000609251 0.00588164 0.0
0.000607276 0.00601896 0.0
0.00060525 0.00615718 0.0
0.000603114 0.00629624 0.0
0.000600901 0.00643605 0.0
0.000752103 0.00011992 0.0
0.000754446 0.000259332 0.0
0.00075675 0.000398092 0.0
0.000759052 0.000535971 0.0
0.00076149 0.000673109 0.0
0.000764184 0.000809361 0.0
0.000767162 0.00094413 0.0
0.00077045 0.00107812 0.0
0.000774036 0.00121177 0.0
0.00077777 0.00134328 0.0
0.000781546 0.00147359 0.0
0.000785207 0.00160278 0.0
0.000788649 0.00173094 0.0
0.000791807 0.00185815 0.0
0.00079466 0.0019845 0.0
0.000797206 0.00211007 0.0
0.000799459 0.00223492 0.0
0.000801434 0.00235913 0.0
0.000803152 0.00248278 0.0
0.000804622 0.00260593 0.0
0.000805854 0.00272868 0.0
0.000806842 0.00285107 0.0
0.000807583 0.0029732 0.0
0.000808078 0.00309514 0.0
0.000808328 0.00321696 0.0
0.000808331 0.00333957 0.0
0.000808089 0.00346139 0.0
0.0008076 0.00358333 0.0
0.000806867 0.00370545 0.0
0.000805886 0.00382784 0.0
0.00080466 0.00395057 0.0
0.000803196 0.00407372 0.0
0.000801486 0.00419735 0.0
0.000799516 0.00432154 0.0
0.00079727 0.00444638 0.0
0.000794729 0.00457192 0.0
0.000791882 0.00469825 0.0
0.000788729 0.00482543 0.0
0.000785293 0.00495356 0.0
0.000781638 0.00508273 0.0
0.00077787 0.00521301 0.0
0.000774148 0.00534448 0.0
0.000770584 0.00547809 0.0
0.00076734 0.00561203 0.0
0.00076442 0.00574713 0.0
0.000761771 0.0058833 0.0
0.00075928 0.00602043 0.0
0.00075684 0.0061584 0.0
0.0007544 0.00629713 0.0
0.000751974 0.00643654 0.0
0.000903445 0.000119441 0.0
0.000906055 0.000258437 0.0
[...]
POINT_DATA 972
VECTORS Position float
0.0000e+00 -1.9832e-05 0.0000e+00
2.5999e-03 -2.0482e-05 0.0000e+00
2.5999e-03 6.5768e-03 0.0000e+00
0.0000e+00 6.5768e-03 0.0000e+00
1.4492e-04 -2.0211e-05 0.0000e+00
2.9834e-04 -2.0239e-05 0.0000e+00
4.4863e-04 -2.0237e-05 0.0000e+00
5.9894e-04 -2.0249e-05 0.0000e+00
7.4973e-04 -2.0260e-05 0.0000e+00
9.0087e-04 -2.0270e-05 0.0000e+00
1.0518e-03 -2.0280e-05 0.0000e+00
1.2035e-03 -2.0293e-05 0.0000e+00
1.3566e-03 -2.0304e-05 0.0000e+00
1.5090e-03 -2.0315e-05 0.0000e+00
1.6618e-03 -2.0328e-05 0.0000e+00
1.8149e-03 -2.0341e-05 0.0000e+00
1.9686e-03 -2.0354e-05 0.0000e+00
2.1229e-03 -2.0366e-05 0.0000e+00
2.2783e-03 -2.0384e-05 0.0000e+00
2.4359e-03 -2.0371e-05 0.0000e+00
2.6061e-03 1.0394e-04 0.0000e+00
2.6109e-03 2.3222e-04 0.0000e+00
2.6160e-03 3.6262e-04 0.0000e+00
2.6210e-03 4.9339e-04 0.0000e+00
2.6261e-03 6.2447e-04 0.0000e+00
2.6312e-03 7.5547e-04 0.0000e+00
2.6364e-03 8.8590e-04 0.0000e+00
2.6417e-03 1.0165e-03 0.0000e+00
2.6473e-03 1.1477e-03 0.0000e+00
2.6528e-03 1.2779e-03 0.0000e+00
2.6585e-03 1.4079e-03 0.0000e+00
2.6641e-03 1.5377e-03 0.0000e+00
2.6697e-03 1.6673e-03 0.0000e+00
2.6751e-03 1.7968e-03 0.0000e+00
2.6802e-03 1.9262e-03 0.0000e+00
2.6851e-03 2.0554e-03 0.0000e+00
2.6896e-03 2.1844e-03 0.0000e+00
2.6937e-03 2.3134e-03 0.0000e+00
2.6974e-03 2.4422e-03 0.0000e+00
2.7006e-03 2.5710e-03 0.0000e+00
2.7034e-03 2.6996e-03 0.0000e+00
2.7056e-03 2.8282e-03 0.0000e+00
2.7072e-03 2.9567e-03 0.0000e+00
2.7084e-03 3.0851e-03 0.0000e+00
2.7089e-03 3.2136e-03 0.0000e+00
2.7089e-03 3.3428e-03 0.0000e+00
2.7084e-03 3.4713e-03 0.0000e+00
2.7073e-03 3.5997e-03 0.0000e+00
2.7056e-03 3.7282e-03 0.0000e+00
2.7034e-03 3.8568e-03 0.0000e+00
2.7007e-03 3.9854e-03 0.0000e+00
2.6975e-03 4.1141e-03 0.0000e+00
2.6938e-03 4.2430e-03 0.0000e+00
2.6897e-03 4.3719e-03 0.0000e+00
2.6852e-03 4.5010e-03 0.0000e+00
2.6803e-03 4.6302e-03 0.0000e+00
2.6752e-03 4.7596e-03 0.0000e+00
2.6698e-03 4.8891e-03 0.0000e+00
2.6643e-03 5.0187e-03 0.0000e+00
2.6586e-03 5.1485e-03 0.0000e+00
2.6530e-03 5.2785e-03 0.0000e+00
2.6473e-03 5.4087e-03 0.0000e+00
2.6418e-03 5.5399e-03 0.0000e+00
2.6365e-03 5.6705e-03 0.0000e+00
2.6313e-03 5.8013e-03 0.0000e+00
2.6261e-03 5.9322e-03 0.0000e+00
2.6210e-03 6.0632e-03 0.0000e+00
2.6160e-03 6.1939e-03 0.0000e+00
2.6109e-03 6.3242e-03 0.0000e+00
2.6061e-03 6.4525e-03 0.0000e+00
2.4358e-03 6.5767e-03 0.0000e+00
2.2783e-03 6.5767e-03 0.0000e+00
2.1228e-03 6.5767e-03 0.0000e+00
1.9685e-03 6.5767e-03 0.0000e+00
1.8149e-03 6.5767e-03 0.0000e+00
1.6617e-03 6.5767e-03 0.0000e+00
1.5090e-03 6.5766e-03 0.0000e+00
1.3566e-03 6.5766e-03 0.0000e+00
1.2035e-03 6.5766e-03 0.0000e+00
1.0518e-03 6.5766e-03 0.0000e+00
9.0077e-04 6.5766e-03 0.0000e+00
7.4957e-04 6.5766e-03 0.0000e+00
5.9867e-04 6.5766e-03 0.0000e+00
4.4822e-04 6.5766e-03 0.0000e+00
2.9813e-04 6.5766e-03 0.0000e+00
1.4870e-04 6.5765e-03 0.0000e+00
0.0000e+00 6.4338e-03 0.0000e+00
0.0000e+00 6.2931e-03 0.0000e+00
0.0000e+00 6.1539e-03 0.0000e+00
0.0000e+00 6.0157e-03 0.0000e+00
0.0000e+00 5.8783e-03 0.0000e+00
0.0000e+00 5.7418e-03 0.0000e+00
0.0000e+00 5.6061e-03 0.0000e+00
0.0000e+00 5.4714e-03 0.0000e+00
0.0000e+00 5.3370e-03 0.0000e+00
0.0000e+00 5.2047e-03 0.0000e+00
0.0000e+00 5.0738e-03 0.0000e+00
0.0000e+00 4.9442e-03 0.0000e+00
0.0000e+00 4.8160e-03 0.0000e+00
0.0000e+00 4.6890e-03 0.0000e+00
0.0000e+00 4.5631e-03 0.0000e+00
0.0000e+00 4.4382e-03 0.0000e+00
0.0000e+00 4.3141e-03 0.0000e+00
0.0000e+00 4.1908e-03 0.0000e+00
0.0000e+00 4.0680e-03 0.0000e+00
0.0000e+00 3.9458e-03 0.0000e+00
0.0000e+00 3.8239e-03 0.0000e+00
0.0000e+00 3.7024e-03 0.0000e+00
0.0000e+00 3.5812e-03 0.0000e+00
0.0000e+00 3.4601e-03 0.0000e+00
0.0000e+00 3.3391e-03 0.0000e+00
0.0000e+00 3.2174e-03 0.0000e+00
0.0000e+00 3.0964e-03 0.0000e+00
0.0000e+00 2.9754e-03 0.0000e+00
0.0000e+00 2.8541e-03 0.0000e+00
0.0000e+00 2.7326e-03 0.0000e+00
0.0000e+00 2.6107e-03 0.0000e+00
0.0000e+00 2.4885e-03 0.0000e+00
0.0000e+00 2.3657e-03 0.0000e+00
0.0000e+00 2.2423e-03 0.0000e+00
0.0000e+00 2.1182e-03 0.0000e+00
0.0000e+00 1.9933e-03 0.0000e+00
0.0000e+00 1.8674e-03 0.0000e+00
0.0000e+00 1.7404e-03 0.0000e+00
0.0000e+00 1.6121e-03 0.0000e+00
0.0000e+00 1.4825e-03 0.0000e+00
0.0000e+00 1.3516e-03 0.0000e+00
0.0000e+00 1.2193e-03 0.0000e+00
0.0000e+00 1.0848e-03 0.0000e+00
0.0000e+00 9.5005e-04 0.0000e+00
0.0000e+00 8.1468e-04 0.0000e+00
0.0000e+00 6.7791e-04 0.0000e+00
0.0000e+00 5.4017e-04 0.0000e+00
0.0000e+00 4.0122e-04 0.0000e+00
0.0000e+00 2.6016e-04 0.0000e+00
0.0000e+00 1.1431e-04 0.0000e+00
1.4810e-04 1.1937e-04 0.0000e+00
1.4978e-04 2.6030e-04 0.0000e+00
1.5087e-04 4.0088e-04 0.0000e+00
1.5168e-04 5.3981e-04 0.0000e+00
1.5225e-04 6.7759e-04 0.0000e+00
1.5277e-04 8.1437e-04 0.0000e+00
1.5332e-04 9.4972e-04 0.0000e+00
1.5393e-04 1.0844e-03 0.0000e+00
1.5463e-04 1.2189e-03 0.0000e+00
1.5539e-04 1.3512e-03 0.0000e+00
1.5620e-04 1.4821e-03 0.0000e+00
1.5701e-04 1.6116e-03 0.0000e+00
1.5779e-04 1.7399e-03 0.0000e+00
1.5852e-04 1.8669e-03 0.0000e+00
1.5916e-04 1.9928e-03 0.0000e+00
1.5972e-04 2.1177e-03 0.0000e+00
1.6020e-04 2.2419e-03 0.0000e+00
1.6061e-04 2.3653e-03 0.0000e+00
1.6096e-04 2.4881e-03 0.0000e+00
1.6126e-04 2.6104e-03 0.0000e+00
1.6150e-04 2.7323e-03 0.0000e+00
1.6169e-04 2.8539e-03 0.0000e+00
1.6184e-04 2.9752e-03 0.0000e+00
1.6193e-04 3.0964e-03 0.0000e+00
1.6198e-04 3.2174e-03 0.0000e+00
1.6198e-04 3.3392e-03 0.0000e+00
1.6194e-04 3.4602e-03 0.0000e+00
1.6184e-04 3.5813e-03 0.0000e+00
1.6170e-04 3.7026e-03 0.0000e+00
1.6151e-04 3.8242e-03 0.0000e+00
1.6126e-04 3.9461e-03 0.0000e+00
1.6097e-04 4.0684e-03 0.0000e+00
1.6062e-04 4.1912e-03 0.0000e+00
1.6021e-04 4.3146e-03 0.0000e+00
1.5974e-04 4.4387e-03 0.0000e+00
1.5918e-04 4.5636e-03 0.0000e+00
1.5853e-04 4.6895e-03 0.0000e+00
1.5781e-04 4.8165e-03 0.0000e+00
1.5703e-04 4.9447e-03 0.0000e+00
1.5622e-04 5.0742e-03 0.0000e+00
1.5541e-04 5.2051e-03 0.0000e+00
1.5465e-04 5.3374e-03 0.0000e+00
1.5395e-04 5.4718e-03 0.0000e+00
1.5335e-04 5.6064e-03 0.0000e+00
1.5282e-04 5.7421e-03 0.0000e+00
1.5235e-04 5.8786e-03 0.0000e+00
1.5190e-04 6.0160e-03 0.0000e+00
1.5142e-04 6.1543e-03 0.0000e+00
1.5079e-04 6.2935e-03 0.0000e+00
1.4990e-04 6.4342e-03 0.0000e+00
2.9962e-04 1.2089e-04 0.0000e+00
3.0048e-04 2.6088e-04 0.0000e+00
3.0184e-04 4.0039e-04 0.0000e+00
3.0322e-04 5.3912e-04 0.0000e+00
3.0438e-04 6.7692e-04 0.0000e+00
3.0545e-04 8.1369e-04 0.0000e+00
3.0656e-04 9.4900e-04 0.0000e+00
3.0780e-04 1.0836e-03 0.0000e+00
3.0921e-04 1.2180e-03 0.0000e+00
3.1073e-04 1.3501e-03 0.0000e+00
3.1234e-04 1.4810e-03 0.0000e+00
3.1395e-04 1.6105e-03 0.0000e+00
3.1549e-04 1.7387e-03 0.0000e+00
3.1691e-04 1.8657e-03 0.0000e+00
3.1817e-04 1.9916e-03 0.0000e+00
3.1927e-04 2.1167e-03 0.0000e+00
3.2022e-04 2.2409e-03 0.0000e+00
3.2103e-04 2.3644e-03 0.0000e+00
3.2173e-04 2.4874e-03 0.0000e+00
3.2232e-04 2.6098e-03 0.0000e+00
3.2280e-04 2.7319e-03 0.0000e+00
3.2319e-04 2.8535e-03 0.0000e+00
3.2348e-04 2.9750e-03 0.0000e+00
3.2368e-04 3.0962e-03 0.0000e+00
3.2378e-04 3.2173e-03 0.0000e+00
3.2378e-04 3.3392e-03 0.0000e+00
3.2368e-04 3.4603e-03 0.0000e+00
3.2349e-04 3.5816e-03 0.0000e+00
3.2320e-04 3.7030e-03 0.0000e+00
3.2282e-04 3.8247e-03 0.0000e+00
3.2233e-04 3.9467e-03 0.0000e+00
3.2174e-04 4.0691e-03 0.0000e+00
3.2105e-04 4.1920e-03 0.0000e+00
3.2024e-04 4.3156e-03 0.0000e+00
3.1930e-04 4.4398e-03 0.0000e+00
3.1820e-04 4.5648e-03 0.0000e+00
3.1694e-04 4.6907e-03 0.0000e+00
3.1553e-04 4.8177e-03 0.0000e+00
3.1399e-04 4.9459e-03 0.0000e+00
3.1238e-04 5.0753e-03 0.0000e+00
3.1077e-04 5.2061e-03 0.0000e+00
3.0925e-04 5.3383e-03 0.0000e+00
3.0785e-04 5.4726e-03 0.0000e+00
3.0662e-04 5.6072e-03 0.0000e+00
3.0555e-04 5.7427e-03 0.0000e+00
3.0459e-04 5.8793e-03 0.0000e+00
3.0367e-04 6.0167e-03 0.0000e+00
3.0267e-04 6.1550e-03 0.0000e+00
3.0143e-04 6.2943e-03 0.0000e+00
2.9987e-04 6.4348e-03 0.0000e+00
4.5045e-04 1.2088e-04 0.0000e+00
4.5189e-04 2.6086e-04 0.0000e+00
4.5332e-04 3.9995e-04 0.0000e+00
4.5497e-04 5.3825e-04 0.0000e+00
4.5663e-04 6.7591e-04 0.0000e+00
4.5827e-04 8.1262e-04 0.0000e+00
4.5998e-04 9.4783e-04 0.0000e+00
4.6188e-04 1.0823e-03 0.0000e+00
4.6400e-04 1.2165e-03 0.0000e+00
4.6629e-04 1.3485e-03 0.0000e+00
4.6867e-04 1.4792e-03 0.0000e+00
4.7104e-04 1.6086e-03 0.0000e+00
4.7329e-04 1.7368e-03 0.0000e+00
4.7535e-04 1.8638e-03 0.0000e+00
4.7719e-04 1.9899e-03 0.0000e+00
4.7881e-04 2.1150e-03 0.0000e+00
4.8021e-04 2.2394e-03 0.0000e+00
4.8142e-04 2.3631e-03 0.0000e+00
4.8246e-04 2.4862e-03 0.0000e+00
4.8334e-04 2.6089e-03 0.0000e+00
4.8408e-04 2.7311e-03 0.0000e+00
4.8466e-04 2.8529e-03 0.0000e+00
4.8510e-04 2.9745e-03 0.0000e+00
4.8540e-04 3.0959e-03 0.0000e+00
4.8555e-04 3.2172e-03 0.0000e+00
4.8555e-04 3.3393e-03 0.0000e+00
4.8540e-04 3.4606e-03 0.0000e+00
4.8511e-04 3.5820e-03 0.0000e+00
4.8468e-04 3.7036e-03 0.0000e+00
4.8410e-04 3.8254e-03 0.0000e+00
4.8337e-04 3.9476e-03 0.0000e+00
4.8248e-04 4.0703e-03 0.0000e+00
4.8145e-04 4.1934e-03 0.0000e+00
4.8024e-04 4.3171e-03 0.0000e+00
4.7884e-04 4.4414e-03 0.0000e+00
4.7723e-04 4.5666e-03 0.0000e+00
4.7540e-04 4.6926e-03 0.0000e+00
4.7334e-04 4.8196e-03 0.0000e+00
4.7109e-04 4.9478e-03 0.0000e+00
4.6873e-04 5.0771e-03 0.0000e+00
4.6635e-04 5.2078e-03 0.0000e+00
4.6407e-04 5.3397e-03 0.0000e+00
4.6195e-04 5.4739e-03 0.0000e+00
4.6009e-04 5.6083e-03 0.0000e+00
4.5844e-04 5.7438e-03 0.0000e+00
4.5695e-04 5.8803e-03 0.0000e+00
4.5551e-04 6.0177e-03 0.0000e+00
4.5397e-04 6.1560e-03 0.0000e+00
4.5222e-04 6.2953e-03 0.0000e+00
4.5026e-04 6.4355e-03 0.0000e+00
6.0109e-04 1.2042e-04 0.0000e+00
6.0309e-04 2.6019e-04 0.0000e+00
6.0496e-04 3.9918e-04 0.0000e+00
6.0685e-04 5.3724e-04 0.0000e+00
6.0890e-04 6.7463e-04 0.0000e+00
6.1108e-04 8.1116e-04 0.0000e+00
6.1342e-04 9.4621e-04 0.0000e+00
6.1600e-04 1.0805e-03 0.0000e+00
6.1886e-04 1.2144e-03 0.0000e+00
6.2189e-04 1.3462e-03 0.0000e+00
6.2500e-04 1.4767e-03 0.0000e+00
6.2806e-04 1.6060e-03 0.0000e+00
6.3094e-04 1.7342e-03 0.0000e+00
6.3359e-04 1.8613e-03 0.0000e+00
6.3596e-04 1.9875e-03 0.0000e+00
6.3806e-04 2.1128e-03 0.0000e+00
6.3990e-04 2.2374e-03 0.0000e+00
6.4149e-04 2.3613e-03 0.0000e+00
6.4288e-04 2.4847e-03 0.0000e+00
6.4406e-04 2.6076e-03 0.0000e+00
6.4504e-04 2.7300e-03 0.0000e+00
6.4583e-04 2.8521e-03 0.0000e+00
6.4642e-04 2.9739e-03 0.0000e+00
6.4681e-04 3.0956e-03 0.0000e+00
6.4701e-04 3.2171e-03 0.0000e+00
6.4701e-04 3.3394e-03 0.0000e+00
6.4682e-04 3.4610e-03 0.0000e+00
6.4643e-04 3.5826e-03 0.0000e+00
6.4585e-04 3.7044e-03 0.0000e+00
6.4507e-04 3.8265e-03 0.0000e+00
6.4409e-04 3.9489e-03 0.0000e+00
6.4291e-04 4.0718e-03 0.0000e+00
6.4154e-04 4.1951e-03 0.0000e+00
6.3994e-04 4.3191e-03 0.0000e+00
6.3811e-04 4.4436e-03 0.0000e+00
6.3602e-04 4.5690e-03 0.0000e+00
6.3365e-04 4.6951e-03 0.0000e+00
6.3101e-04 4.8222e-03 0.0000e+00
6.2813e-04 4.9503e-03 0.0000e+00
6.2508e-04 5.0796e-03 0.0000e+00
6.2197e-04 5.2101e-03 0.0000e+00
6.1895e-04 5.3418e-03 0.0000e+00
6.1611e-04 5.4757e-03 0.0000e+00
6.1357e-04 5.6099e-03 0.0000e+00
6.1131e-04 5.7453e-03 0.0000e+00
6.0925e-04 5.8816e-03 0.0000e+00
6.0728e-04 6.0190e-03 0.0000e+00
6.0525e-04 6.1572e-03 0.0000e+00
6.0311e-04 6.2962e-03 0.0000e+00
6.0090e-04 6.4361e-03 0.0000e+00
7.5210e-04 1.1992e-04 0.0000e+00
7.5445e-04 2.5933e-04 0.0000e+00
7.5675e-04 3.9809e-04 0.0000e+00
7.5905e-04 5.3597e-04 0.0000e+00
7.6149e-04 6.7311e-04 0.0000e+00
7.6418e-04 8.0936e-04 0.0000e+00
7.6716e-04 9.4413e-04 0.0000e+00
7.7045e-04 1.0781e-03 0.0000e+00
7.7404e-04 1.2118e-03 0.0000e+00
7.7777e-04 1.3433e-03 0.0000e+00
7.8155e-04 1.4736e-03 0.0000e+00
7.8521e-04 1.6028e-03 0.0000e+00
7.8865e-04 1.7309e-03 0.0000e+00
7.9181e-04 1.8582e-03 0.0000e+00
7.9466e-04 1.9845e-03 0.0000e+00
7.9721e-04 2.1101e-03 0.0000e+00
7.9946e-04 2.2349e-03 0.0000e+00
8.0143e-04 2.3591e-03 0.0000e+00
8.0315e-04 2.4828e-03 0.0000e+00
8.0462e-04 2.6059e-03 0.0000e+00
8.0585e-04 2.7287e-03 0.0000e+00
8.0684e-04 2.8511e-03 0.0000e+00
8.0758e-04 2.9732e-03 0.0000e+00
8.0808e-04 3.0951e-03 0.0000e+00
8.0833e-04 3.2170e-03 0.0000e+00
8.0833e-04 3.3396e-03 0.0000e+00
8.0809e-04 3.4614e-03 0.0000e+00
8.0760e-04 3.5833e-03 0.0000e+00
8.0687e-04 3.7054e-03 0.0000e+00
8.0589e-04 3.8278e-03 0.0000e+00
8.0466e-04 3.9506e-03 0.0000e+00
8.0320e-04 4.0737e-03 0.0000e+00
8.0149e-04 4.1973e-03 0.0000e+00
7.9952e-04 4.3215e-03 0.0000e+00
7.9727e-04 4.4464e-03 0.0000e+00
7.9473e-04 4.5719e-03 0.0000e+00
7.9188e-04 4.6982e-03 0.0000e+00
7.8873e-04 4.8254e-03 0.0000e+00
7.8529e-04 4.9536e-03 0.0000e+00
7.8164e-04 5.0827e-03 0.0000e+00
7.7787e-04 5.2130e-03 0.0000e+00
7.7415e-04 5.3445e-03 0.0000e+00
7.7058e-04 5.4781e-03 0.0000e+00
7.6734e-04 5.6120e-03 0.0000e+00
7.6442e-04 5.7471e-03 0.0000e+00
7.6177e-04 5.8833e-03 0.0000e+00
7.5928e-04 6.0204e-03 0.0000e+00
7.5684e-04 6.1584e-03 0.0000e+00
7.5440e-04 6.2971e-03 0.0000e+00
7.5197e-04 6.4365e-03 0.0000e+00
9.0345e-04 1.1944e-04 0.0000e+00
9.0605e-04 2.5844e-04 0.0000e+00
9.0870e-04 3.9687e-04 0.0000e+00
9.1142e-04 5.3446e-04 0.0000e+00
9.1433e-04 6.7131e-04 0.0000e+00
9.1756e-04 8.0721e-04 0.0000e+00
9.2118e-04 9.4161e-04 0.0000e+00
9.2517e-04 1.0752e-03 0.0000e+00
9.2946e-04 1.2085e-03 0.0000e+00
9.3383e-04 1.3397e-03 0.0000e+00
9.3818e-04 1.4699e-03 0.0000e+00
9.4235e-04 1.5990e-03 0.0000e+00
9.4626e-04 1.7272e-03 0.0000e+00
9.4987e-04 1.8545e-03 0.0000e+00
9.5315e-04 1.9811e-03 0.0000e+00
9.5611e-04 2.1069e-03 0.0000e+00
9.5875e-04 2.2320e-03 0.0000e+00
9.6109e-04 2.3565e-03 0.0000e+00
9.6313e-04 2.4805e-03 0.0000e+00
9.6489e-04 2.6040e-03 0.0000e+00
9.6636e-04 2.7271e-03 0.0000e+00
9.6755e-04 2.8498e-03 0.0000e+00
9.6844e-04 2.9723e-03 0.0000e+00
9.6903e-04 3.0946e-03 0.0000e+00
9.6933e-04 3.2168e-03 0.0000e+00
9.6934e-04 3.3397e-03 0.0000e+00
9.6904e-04 3.4619e-03 0.0000e+00
9.6846e-04 3.5842e-03 0.0000e+00
9.6757e-04 3.7067e-03 0.0000e+00
9.6640e-04 3.8294e-03 0.0000e+00
9.6493e-04 3.9525e-03 0.0000e+00
9.6319e-04 4.0760e-03 0.0000e+00
9.6115e-04 4.1999e-03 0.0000e+00
9.5882e-04 4.3244e-03 0.0000e+00
9.5618e-04 4.4496e-03 0.0000e+00
9.5323e-04 4.5753e-03 0.0000e+00
9.4996e-04 4.7019e-03 0.0000e+00
9.4636e-04 4.8292e-03 0.0000e+00
9.4245e-04 4.9574e-03 0.0000e+00
9.3829e-04 5.0865e-03 0.0000e+00
9.3395e-04 5.2166e-03 0.0000e+00
9.2959e-04 5.3478e-03 0.0000e+00
9.2533e-04 5.4810e-03 0.0000e+00
9.2137e-04 5.6146e-03 0.0000e+00
9.1776e-04 5.7493e-03 0.0000e+00
9.1451e-04 5.8852e-03 0.0000e+00
9.1152e-04 6.0220e-03 0.0000e+00
9.0871e-04 6.1597e-03 0.0000e+00
9.0600e-04 6.2980e-03 0.0000e+00
9.0336e-04 6.4370e-03 0.0000e+00
1.0546e-03 1.1896e-04 0.0000e+00
1.0575e-03 2.5754e-04 0.0000e+00
1.0604e-03 3.9557e-04 0.0000e+00
1.0635e-03 5.3279e-04 0.0000e+00
1.0669e-03 6.6924e-04 0.0000e+00
1.0708e-03 8.0471e-04 0.0000e+00
1.0750e-03 9.3863e-04 0.0000e+00
1.0797e-03 1.0718e-03 0.0000e+00
1.0846e-03 1.2047e-03 0.0000e+00
1.0895e-03 1.3356e-03 0.0000e+00
1.0943e-03 1.4656e-03 0.0000e+00
1.0989e-03 1.5947e-03 0.0000e+00
1.1032e-03 1.7230e-03 0.0000e+00
1.1072e-03 1.8505e-03 0.0000e+00
1.1109e-03 1.9772e-03 0.0000e+00
1.1142e-03 2.1033e-03 0.0000e+00
1.1172e-03 2.2288e-03 0.0000e+00
1.1199e-03 2.3536e-03 0.0000e+00
1.1222e-03 2.4780e-03 0.0000e+00
1.1243e-03 2.6018e-03 0.0000e+00
1.1260e-03 2.7253e-03 0.0000e+00
1.1273e-03 2.8484e-03 0.0000e+00
1.1284e-03 2.9713e-03 0.0000e+00
1.1291e-03 3.0940e-03 0.0000e+00
1.1294e-03 3.2166e-03 0.0000e+00
1.1294e-03 3.3399e-03 0.0000e+00
1.1291e-03 3.4625e-03 0.0000e+00
1.1284e-03 3.5852e-03 0.0000e+00
1.1274e-03 3.7081e-03 0.0000e+00
1.1260e-03 3.8312e-03 0.0000e+00
1.1243e-03 3.9547e-03 0.0000e+00
1.1223e-03 4.0785e-03 0.0000e+00
1.1200e-03 4.2028e-03 0.0000e+00
1.1173e-03 4.3277e-03 0.0000e+00
1.1143e-03 4.4531e-03 0.0000e+00
1.1110e-03 4.5792e-03 0.0000e+00
1.1073e-03 4.7059e-03 0.0000e+00
1.1033e-03 4.8334e-03 0.0000e+00
1.0990e-03 4.9617e-03 0.0000e+00
1.0945e-03 5.0907e-03 0.0000e+00
1.0897e-03 5.2207e-03 0.0000e+00
1.0848e-03 5.3516e-03 0.0000e+00
1.0799e-03 5.4845e-03 0.0000e+00
1.0752e-03 5.6176e-03 0.0000e+00
1.0709e-03 5.7519e-03 0.0000e+00
1.0671e-03 5.8873e-03 0.0000e+00
1.0636e-03 6.0237e-03 0.0000e+00
1.0604e-03 6.1610e-03 0.0000e+00
1.0574e-03 6.2989e-03 0.0000e+00
1.0545e-03 6.4375e-03 0.0000e+00
1.2065e-03 1.1849e-04 0.0000e+00
1.2096e-03 2.5661e-04 0.0000e+00
1.2129e-03 3.9421e-04 0.0000e+00
1.2164e-03 5.3096e-04 0.0000e+00
1.2204e-03 6.6691e-04 0.0000e+00
1.2249e-03 8.0181e-04 0.0000e+00
1.2298e-03 9.3516e-04 0.0000e+00
1.2350e-03 1.0678e-03 0.0000e+00
1.2404e-03 1.2003e-03 0.0000e+00
1.2458e-03 1.3310e-03 0.0000e+00
1.2509e-03 1.4609e-03 0.0000e+00
1.2558e-03 1.5900e-03 0.0000e+00
1.2605e-03 1.7184e-03 0.0000e+00
1.2648e-03 1.8460e-03 0.0000e+00
1.2688e-03 1.9731e-03 0.0000e+00
1.2725e-03 2.0994e-03 0.0000e+00
1.2758e-03 2.2252e-03 0.0000e+00
1.2788e-03 2.3504e-03 0.0000e+00
1.2814e-03 2.4751e-03 0.0000e+00
1.2837e-03 2.5994e-03 0.0000e+00
1.2856e-03 2.7233e-03 0.0000e+00
1.2872e-03 2.8468e-03 0.0000e+00
1.2884e-03 2.9701e-03 0.0000e+00
1.2892e-03 3.0933e-03 0.0000e+00
1.2895e-03 3.2163e-03 0.0000e+00
1.2896e-03 3.3402e-03 0.0000e+00
1.2892e-03 3.4632e-03 0.0000e+00
1.2884e-03 3.5864e-03 0.0000e+00
1.2872e-03 3.7097e-03 0.0000e+00
1.2857e-03 3.8332e-03 0.0000e+00
1.2838e-03 3.9571e-03 0.0000e+00
1.2815e-03 4.0814e-03 0.0000e+00
1.2789e-03 4.2061e-03 0.0000e+00
1.2759e-03 4.3312e-03 0.0000e+00
1.2726e-03 4.4570e-03 0.0000e+00
1.2689e-03 4.5834e-03 0.0000e+00
1.2649e-03 4.7103e-03 0.0000e+00
1.2606e-03 4.8380e-03 0.0000e+00
1.2560e-03 4.9664e-03 0.0000e+00
1.2511e-03 5.0955e-03 0.0000e+00
1.2459e-03 5.2253e-03 0.0000e+00
1.2406e-03 5.3560e-03 0.0000e+00
1.2352e-03 5.4885e-03 0.0000e+00
1.2299e-03 5.6211e-03 0.0000e+00
1.2250e-03 5.7548e-03 0.0000e+00
1.2204e-03 5.8897e-03 0.0000e+00
1.2164e-03 6.0255e-03 0.0000e+00
1.2128e-03 6.1623e-03 0.0000e+00
1.2095e-03 6.2998e-03 0.0000e+00
1.2065e-03 6.4379e-03 0.0000e+00
1.3598e-03 1.1800e-04 0.0000e+00
1.3631e-03 2.5566e-04 0.0000e+00
1.3668e-03 3.9274e-04 0.0000e+00
1.3708e-03 5.2893e-04 0.0000e+00
1.3754e-03 6.6424e-04 0.0000e+00
1.3805e-03 7.9846e-04 0.0000e+00
1.3861e-03 9.3115e-04 0.0000e+00
1.3918e-03 1.0632e-03 0.0000e+00
1.3975e-03 1.1954e-03 0.0000e+00
1.4031e-03 1.3259e-03 0.0000e+00
1.4085e-03 1.4557e-03 0.0000e+00
1.4137e-03 1.5849e-03 0.0000e+00
1.4186e-03 1.7134e-03 0.0000e+00
1.4232e-03 1.8413e-03 0.0000e+00
1.4275e-03 1.9686e-03 0.0000e+00
1.4315e-03 2.0952e-03 0.0000e+00
1.4352e-03 2.2213e-03 0.0000e+00
1.4384e-03 2.3469e-03 0.0000e+00
1.4414e-03 2.4720e-03 0.0000e+00
1.4439e-03 2.5967e-03 0.0000e+00
1.4460e-03 2.7210e-03 0.0000e+00
1.4477e-03 2.8451e-03 0.0000e+00
1.4490e-03 2.9689e-03 0.0000e+00
1.4499e-03 3.0925e-03 0.0000e+00
1.4503e-03 3.2161e-03 0.0000e+00
1.4503e-03 3.3404e-03 0.0000e+00
1.4499e-03 3.4640e-03 0.0000e+00
1.4490e-03 3.5876e-03 0.0000e+00
1.4477e-03 3.7114e-03 0.0000e+00
1.4460e-03 3.8354e-03 0.0000e+00
1.4439e-03 3.9598e-03 0.0000e+00
1.4414e-03 4.0844e-03 0.0000e+00
1.4385e-03 4.2095e-03 0.0000e+00
1.4353e-03 4.3351e-03 0.0000e+00
1.4316e-03 4.4612e-03 0.0000e+00
1.4276e-03 4.5878e-03 0.0000e+00
1.4233e-03 4.7151e-03 0.0000e+00
1.4187e-03 4.8430e-03 0.0000e+00
1.4138e-03 4.9715e-03 0.0000e+00
1.4087e-03 5.1006e-03 0.0000e+00
1.4033e-03 5.2304e-03 0.0000e+00
1.3977e-03 5.3609e-03 0.0000e+00
1.3919e-03 5.4930e-03 0.0000e+00
1.3862e-03 5.6251e-03 0.0000e+00
1.3806e-03 5.7582e-03 0.0000e+00
1.3754e-03 5.8923e-03 0.0000e+00
1.3708e-03 6.0276e-03 0.0000e+00
1.3667e-03 6.1638e-03 0.0000e+00
1.3631e-03 6.3008e-03 0.0000e+00
1.3597e-03 6.4384e-03 0.0000e+00
1.5124e-03 1.1751e-04 0.0000e+00
1.5160e-03 2.5465e-04 0.0000e+00
1.5201e-03 3.9116e-04 0.0000e+00
1.5247e-03 5.2665e-04 0.0000e+00
1.5300e-03 6.6118e-04 0.0000e+00
1.5358e-03 7.9462e-04 0.0000e+00
1.5418e-03 9.2665e-04 0.0000e+00
1.5478e-03 1.0583e-03 0.0000e+00
1.5537e-03 1.1901e-03 0.0000e+00
1.5595e-03 1.3205e-03 0.0000e+00
1.5650e-03 1.4503e-03 0.0000e+00
1.5704e-03 1.5796e-03 0.0000e+00
1.5755e-03 1.7083e-03 0.0000e+00
1.5804e-03 1.8363e-03 0.0000e+00
1.5849e-03 1.9639e-03 0.0000e+00
1.5892e-03 2.0908e-03 0.0000e+00
1.5931e-03 2.2173e-03 0.0000e+00
1.5967e-03 2.3432e-03 0.0000e+00