# vtk DataFile Version 3.0
VTK Example
ASCII
DATASET UNSTRUCTURED_GRID
POINTS 868 float 
0.000147908 0.000143934 0.0
0.000295587 0.000143753 0.0
0.000443625 0.000143557 0.0
0.000591589 0.000143495 0.0
0.00073963 0.000143425 0.0
0.00088769 0.000143366 0.0
0.00103578 0.000143319 0.0
0.00118387 0.000143313 0.0
0.00133193 0.000143328 0.0
0.00147996 0.000143391 0.0
0.0016279 0.000143457 0.0
0.00177576 0.000143551 0.0
0.00192353 0.000143763 0.0
0.00207109 0.000143886 0.0
0.0022187 0.000143912 0.0
0.00236722 0.000142986 0.0
0.00251994 0.000138707 0.0
0.00267776 0.000130304 0.0
0.00285085 0.000107704 0.0
0.000148178 0.000288154 0.0
0.000295925 0.000288306 0.0
0.000444078 0.00028829 0.0
0.000592146 0.000288129 0.0
0.000740243 0.000288023 0.0
0.000888366 0.000287924 0.0
0.00103649 0.00028787 0.0
0.0011846 0.00028786 0.0
0.0013327 0.00028792 0.0
0.00148074 0.00028803 0.0
0.0016287 0.000288245 0.0
0.0017765 0.000288461 0.0
0.00192429 0.000288706 0.0
0.00207241 0.000288718 0.0
0.00222276 0.000286564 0.0
0.00237951 0.000280296 0.0
0.00254373 0.000268911 0.0
0.00272049 0.000245857 0.0
0.0028999 0.000209127 0.0
0.00303212 0.000212944 0.0
0.000148137 0.000433304 0.0
0.000296331 0.000433199 0.0
0.000444487 0.000433105 0.0
0.000592723 0.000432985 0.0
0.000740917 0.000432832 0.0
0.000889116 0.000432737 0.0
0.00103731 0.000432677 0.0
0.00118549 0.000432689 0.0
0.00133363 0.000432782 0.0
0.00148169 0.000433002 0.0
0.0016297 0.000433273 0.0
0.00177784 0.00043348 0.0
0.00192729 0.000432424 0.0
0.00208178 0.000428179 0.0
0.00224325 0.000420457 0.0
0.00240881 0.000407742 0.0
0.00257724 0.000390668 0.0
0.00274333 0.000368818 0.0
0.00290743 0.000341331 0.0
0.00306164 0.000323665 0.0
0.000148329 0.000577957 0.0
0.000296673 0.000577922 0.0
0.000445019 0.000577783 0.0
0.000593338 0.000577649 0.0
0.000741679 0.00057752 0.0
0.000889997 0.000577418 0.0
0.0010383 0.000577382 0.0
0.00118659 0.000577413 0.0
0.00133484 0.000577568 0.0
0.0014832 0.000577705 0.0
0.00163231 0.000577355 0.0
0.00178473 0.000574594 0.0
0.00194391 0.000567932 0.0
0.00210804 0.000558218 0.0
0.00227362 0.000546039 0.0
0.00243934 0.000531323 0.0
0.00260206 0.000514246 0.0
0.00275974 0.000497917 0.0
0.00291988 0.000485555 0.0
0.00308946 0.000477034 0.0
0.000148559 0.000722295 0.0
0.000297091 0.000722245 0.0
0.000445596 0.000722155 0.0
0.000594095 0.000722015 0.0
0.000742586 0.000721886 0.0
0.000891117 0.00072177 0.0
0.00103967 0.00072174 0.0
0.00118829 0.000721713 0.0
0.00133744 0.000721408 0.0
0.00148864 0.000719727 0.0
0.00164534 0.000714532 0.0
0.00180845 0.000705984 0.0
0.00197315 0.000695119 0.0
0.0021373 0.000683534 0.0
0.0023005 0.000670881 0.0
0.00246108 0.000657348 0.0
0.00261817 0.000644042 0.0
0.00277217 0.000631211 0.0
0.00292126 0.000618885 0.0
0.00307257 0.000606257 0.0
0.000148787 0.000866165 0.0
0.000297583 0.000866153 0.0
0.000446353 0.000866093 0.0
0.000595111 0.000865955 0.0
0.000743953 0.000865752 0.0
0.000892926 0.000865523 0.0
0.00104232 0.000865117 0.0
0.00119308 0.000863891 0.0
0.00134772 0.000860009 0.0
0.00150879 0.000852623 0.0
0.00167345 0.000842502 0.0
0.00183722 0.000831598 0.0
0.00199981 0.000820837 0.0
0.00216083 0.000809626 0.0
0.00231973 0.000798398 0.0
0.0024762 0.000787404 0.0
0.00263036 0.000776689 0.0
0.00278255 0.000766045 0.0
0.00293758 0.000751602 0.0
0.00309661 0.00073282 0.0
0.00322637 0.000750359 0.0
0.000149116 0.00100953 0.0
0.000298251 0.00100943 0.0
0.000447506 0.00100935 0.0
0.000596871 0.00100909 0.0
0.000746584 0.00100851 0.0
0.00089736 0.0010073 0.0
0.00105089 0.00100432 0.0
0.00120965 0.000998292 0.0
0.00137321 0.000989108 0.0
0.00153728 0.000978208 0.0
0.00169976 0.000967784 0.0
0.00186088 0.000957673 0.0
0.00202034 0.000947684 0.0
0.0021781 0.000937987 0.0
0.00233392 0.000928584 0.0
0.002488 0.000919538 0.0
0.00264053 0.000910574 0.0
0.0027917 0.000901559 0.0
0.00294158 0.000892265 0.0
0.00310195 0.000878591 0.0
0.00326292 0.000874357 0.0
0.000149776 0.00115203 0.0
0.000299496 0.00115175 0.0
0.000449728 0.00115112 0.0
0.000600964 0.00115006 0.0
0.000754135 0.00114754 0.0
0.000911104 0.0011426 0.0
0.0010727 0.00113463 0.0
0.0012365 0.00112432 0.0
0.00139944 0.00111354 0.0
0.00156078 0.00110346 0.0
0.00172066 0.00109388 0.0
0.00187907 0.00108484 0.0
0.002036 0.00107623 0.0
0.00219133 0.00106806 0.0
0.00234524 0.00106029 0.0
0.00249786 0.00105268 0.0
0.00264933 0.00104513 0.0
0.00279972 0.00103741 0.0
0.00294903 0.00102953 0.0
0.00309442 0.00102157 0.0
0.00324303 0.00100973 0.0
0.000151221 0.00129252 0.0
0.000302861 0.00129157 0.0
0.000456082 0.00128912 0.0
0.000612313 0.00128503 0.0
0.000772182 0.00127862 0.0
0.000934664 0.00126934 0.0
0.0010977 0.0012586 0.0
0.00125972 0.00124805 0.0
0.00142027 0.00123832 0.0
0.00157934 0.00122926 0.0
0.00173701 0.00122092 0.0
0.00189332 0.00121316 0.0
0.00204827 0.00120598 0.0
0.00220201 0.00119924 0.0
0.00235463 0.00119276 0.0
0.00250626 0.00118643 0.0
0.00265694 0.00118006 0.0
0.00280668 0.0011736 0.0
0.0029555 0.00116696 0.0
0.00310761 0.00115651 0.0
0.00326246 0.00114213 0.0
0.0033817 0.00116047 0.0
0.000154719 0.00142815 0.0
0.000310853 0.00142533 0.0
0.000469384 0.00141976 0.0
0.000630492 0.00141182 0.0
0.000793477 0.00140214 0.0
0.000956514 0.00139162 0.0
0.00111817 0.00138131 0.0
0.00127822 0.0013719 0.0
0.00143681 0.0013634 0.0
0.00159403 0.00135571 0.0
0.00174992 0.00134871 0.0
0.00190459 0.00134236 0.0
0.00205816 0.00133651 0.0
0.00221075 0.00133102 0.0
0.00236246 0.00132575 0.0
0.00251333 0.00132054 0.0
0.00266338 0.00131533 0.0
0.00281262 0.00131001 0.0
0.00296102 0.00130458 0.0
0.00310858 0.00129899 0.0
0.00326116 0.00128611 0.0
0.00340415 0.00127689 0.0
0.000160545 0.00155553 0.0
0.00032227 0.00155035 0.0
0.000485374 0.00154226 0.0
0.000649112 0.00153237 0.0
0.000812332 0.00152214 0.0
0.000974194 0.00151249 0.0
0.00113435 0.00150372 0.0
0.00129282 0.00149585 0.0
0.00144982 0.00148888 0.0
0.00160552 0.00148267 0.0
0.00176004 0.00147714 0.0
0.00191352 0.00147213 0.0
0.00206609 0.00146754 0.0
0.00221785 0.00146322 0.0
0.00236886 0.00145905 0.0
0.00251914 0.00145495 0.0
0.0026687 0.00145082 0.0
0.00281752 0.00144663 0.0
0.0029656 0.00144232 0.0
0.00311289 0.00143792 0.0
0.00325989 0.00143342 0.0
0.00341055 0.00142521 0.0
0.000166923 0.00167339 0.0
0.000333787 0.00166729 0.0
0.000499902 0.0016587 0.0
0.000664526 0.00164943 0.0
0.00082718 0.00164062 0.0
0.00098786 0.00163282 0.0
0.00114672 0.00162597 0.0
0.00130393 0.00161997 0.0
0.0014597 0.00161469 0.0
0.00161425 0.00161008 0.0
0.00176777 0.00160598 0.0
0.0019204 0.00160229 0.0
0.00207225 0.0015989 0.0
0.00222339 0.0015957 0.0
0.00237387 0.00159262 0.0
0.0025237 0.00158957 0.0
0.00267288 0.00158651 0.0
0.00282139 0.00158338 0.0
0.0029692 0.00158018 0.0
0.0031163 0.00157689 0.0
0.0032645 0.00157351 0.0
0.00341893 0.00156993 0.0
0.00017203 0.00178347 0.0
0.000342672 0.00177825 0.0
0.000510646 0.00177147 0.0
0.000675618 0.00176454 0.0
0.000837816 0.00175829 0.0
0.00099764 0.00175285 0.0
0.00115553 0.00174823 0.0
0.00131179 0.00174424 0.0
0.00146669 0.00174079 0.0
0.00162046 0.00173776 0.0
0.00177331 0.0017351 0.0
0.00192535 0.00173269 0.0
0.00207671 0.00173048 0.0
0.00222741 0.00172839 0.0
0.00237752 0.00172636 0.0
0.00252702 0.00172436 0.0
0.00267593 0.00172233 0.0
0.0028242 0.00172026 0.0
0.00297183 0.00171812 0.0
0.00311877 0.00171592 0.0
0.00326784 0.00171364 0.0
0.00342703 0.00171116 0.0
0.000175101 0.00188845 0.0
0.000347939 0.00188565 0.0
0.000517014 0.00188203 0.0
0.000682275 0.00187853 0.0
0.000844236 0.00187537 0.0
0.00100359 0.00187275 0.0
0.00116088 0.00187051 0.0
0.00131657 0.00186865 0.0
0.00147095 0.00186703 0.0
0.00162428 0.00186563 0.0
0.00177672 0.00186437 0.0
0.00192843 0.00186325 0.0
0.00207948 0.0018622 0.0
0.00222993 0.0018612 0.0
0.0023798 0.00186023 0.0
0.00252911 0.00185925 0.0
0.00267784 0.00185824 0.0
0.00282597 0.0018572 0.0
0.00297347 0.00185612 0.0
0.00312032 0.00185499 0.0
0.00326993 0.00185381 0.0
0.00343207 0.00185249 0.0
0.000176101 0.00199118 0.0
0.000349628 0.0019913 0.0
0.000519137 0.00199159 0.0
0.000684538 0.00199186 0.0
0.0008465 0.00199222 0.0
0.00100571 0.00199251 0.0
0.00116285 0.00199283 0.0
0.00131833 0.00199309 0.0
0.00147256 0.00199335 0.0
0.00162573 0.00199355 0.0
0.00177806 0.00199373 0.0
0.00192964 0.00199387 0.0
0.00208059 0.00199399 0.0
0.00223093 0.00199409 0.0
0.00238073 0.00199415 0.0
0.00252995 0.00199419 0.0
0.00267861 0.0019942 0.0
0.00282667 0.00199419 0.0
0.00297413 0.00199414 0.0
0.00312093 0.00199408 0.0
0.00327071 0.00199399 0.0
0.00343388 0.00199388 0.0
0.000175075 0.00209382 0.0
0.000347925 0.00209702 0.0
0.000517068 0.00210102 0.0
0.000682468 0.0021052 0.0
0.000844553 0.00210893 0.0
0.00100403 0.00211226 0.0
0.00116137 0.00211506 0.0
0.00131711 0.00211752 0.0
0.0014715 0.00211961 0.0
0.00162486 0.00212145 0.0
0.0017773 0.00212304 0.0
0.00192901 0.00212449 0.0
0.00208002 0.00212578 0.0
0.00223045 0.00212697 0.0
0.00238027 0.00212809 0.0
0.00252955 0.00212915 0.0
0.00267822 0.00213018 0.0
0.00282632 0.00213118 0.0
0.00297378 0.00213219 0.0
0.00312061 0.00213317 0.0
0.00327023 0.00213418 0.0
0.00343258 0.00213525 0.0
0.00017203 0.00219893 0.0
0.000342661 0.00220429 0.0
0.000510757 0.00221154 0.0
0.000675919 0.00221891 0.0
0.000838395 0.00222586 0.0
0.000998418 0.0022319 0.0
0.00115647 0.00223724 0.0
0.00131279 0.00224178 0.0
0.00146779 0.00224576 0.0
0.0016216 0.00224919 0.0
0.00177449 0.00225227 0.0
0.00192649 0.002255 0.0
0.00207781 0.0022575 0.0
0.00222843 0.0022598 0.0
0.00237847 0.00226197 0.0
0.00252788 0.00226406 0.0
0.00267671 0.00226612 0.0
0.0028249 0.00226816 0.0
0.00297246 0.00227021 0.0
0.00311934 0.00227227 0.0
0.00326846 0.00227435 0.0
0.00343178 0.00228019 0.0
0.000166903 0.00230887 0.0
0.000333876 0.0023153 0.0
0.000500049 0.00232406 0.0
0.000664912 0.0023338 0.0
0.000827858 0.00234309 0.0
0.000988871 0.00235168 0.0
0.00114791 0.0023592 0.0
0.00130534 0.00236585 0.0
0.00146125 0.0023716 0.0
0.00161596 0.00237673 0.0
0.00176949 0.00238126 0.0
0.00192211 0.00238536 0.0
0.00207387 0.00238906 0.0
0.00222493 0.0023925 0.0
0.00237528 0.00239574 0.0
[...]
POINT_DATA 868
VECTORS Position float
1.4791e-04 1.4393e-04 0.0000e+00
2.9559e-04 1.4375e-04 0.0000e+00
4.4363e-04 1.4356e-04 0.0000e+00
5.9159e-04 1.4349e-04 0.0000e+00
7.3963e-04 1.4342e-04 0.0000e+00
8.8769e-04 1.4337e-04 0.0000e+00
1.0358e-03 1.4332e-04 0.0000e+00
1.1839e-03 1.4331e-04 0.0000e+00
1.3319e-03 1.4333e-04 0.0000e+00
1.4800e-03 1.4339e-04 0.0000e+00
1.6279e-03 1.4346e-04 0.0000e+00
1.7758e-03 1.4355e-04 0.0000e+00
1.9235e-03 1.4376e-04 0.0000e+00
2.0711e-03 1.4389e-04 0.0000e+00
2.2187e-03 1.4391e-04 0.0000e+00
2.3672e-03 1.4299e-04 0.0000e+00
2.5199e-03 1.3871e-04 0.0000e+00
2.6778e-03 1.3030e-04 0.0000e+00
2.8508e-03 1.0770e-04 0.0000e+00
1.4818e-04 2.8815e-04 0.0000e+00
2.9592e-04 2.8831e-04 0.0000e+00
4.4408e-04 2.8829e-04 0.0000e+00
5.9215e-04 2.8813e-04 0.0000e+00
7.4024e-04 2.8802e-04 0.0000e+00
8.8837e-04 2.8792e-04 0.0000e+00
1.0365e-03 2.8787e-04 0.0000e+00
1.1846e-03 2.8786e-04 0.0000e+00
1.3327e-03 2.8792e-04 0.0000e+00
1.4807e-03 2.8803e-04 0.0000e+00
1.6287e-03 2.8825e-04 0.0000e+00
1.7765e-03 2.8846e-04 0.0000e+00
1.9243e-03 2.8871e-04 0.0000e+00
2.0724e-03 2.8872e-04 0.0000e+00
2.2228e-03 2.8656e-04 0.0000e+00
2.3795e-03 2.8030e-04 0.0000e+00
2.5437e-03 2.6891e-04 0.0000e+00
2.7205e-03 2.4586e-04 0.0000e+00
2.8999e-03 2.0913e-04 0.0000e+00
3.0321e-03 2.1294e-04 0.0000e+00
1.4814e-04 4.3330e-04 0.0000e+00
2.9633e-04 4.3320e-04 0.0000e+00
4.4449e-04 4.3311e-04 0.0000e+00
5.9272e-04 4.3299e-04 0.0000e+00
7.4092e-04 4.3283e-04 0.0000e+00
8.8912e-04 4.3274e-04 0.0000e+00
1.0373e-03 4.3268e-04 0.0000e+00
1.1855e-03 4.3269e-04 0.0000e+00
1.3336e-03 4.3278e-04 0.0000e+00
1.4817e-03 4.3300e-04 0.0000e+00
1.6297e-03 4.3327e-04 0.0000e+00
1.7778e-03 4.3348e-04 0.0000e+00
1.9273e-03 4.3242e-04 0.0000e+00
2.0818e-03 4.2818e-04 0.0000e+00
2.2433e-03 4.2046e-04 0.0000e+00
2.4088e-03 4.0774e-04 0.0000e+00
2.5772e-03 3.9067e-04 0.0000e+00
2.7433e-03 3.6882e-04 0.0000e+00
2.9074e-03 3.4133e-04 0.0000e+00
3.0616e-03 3.2366e-04 0.0000e+00
1.4833e-04 5.7796e-04 0.0000e+00
2.9667e-04 5.7792e-04 0.0000e+00
4.4502e-04 5.7778e-04 0.0000e+00
5.9334e-04 5.7765e-04 0.0000e+00
7.4168e-04 5.7752e-04 0.0000e+00
8.9000e-04 5.7742e-04 0.0000e+00
1.0383e-03 5.7738e-04 0.0000e+00
1.1866e-03 5.7741e-04 0.0000e+00
1.3348e-03 5.7757e-04 0.0000e+00
1.4832e-03 5.7771e-04 0.0000e+00
1.6323e-03 5.7735e-04 0.0000e+00
1.7847e-03 5.7459e-04 0.0000e+00
1.9439e-03 5.6793e-04 0.0000e+00
2.1080e-03 5.5822e-04 0.0000e+00
2.2736e-03 5.4604e-04 0.0000e+00
2.4393e-03 5.3132e-04 0.0000e+00
2.6021e-03 5.1425e-04 0.0000e+00
2.7597e-03 4.9792e-04 0.0000e+00
2.9199e-03 4.8556e-04 0.0000e+00
3.0895e-03 4.7703e-04 0.0000e+00
1.4856e-04 7.2230e-04 0.0000e+00
2.9709e-04 7.2225e-04 0.0000e+00
4.4560e-04 7.2215e-04 0.0000e+00
5.9409e-04 7.2202e-04 0.0000e+00
7.4259e-04 7.2189e-04 0.0000e+00
8.9112e-04 7.2177e-04 0.0000e+00
1.0397e-03 7.2174e-04 0.0000e+00
1.1883e-03 7.2171e-04 0.0000e+00
1.3374e-03 7.2141e-04 0.0000e+00
1.4886e-03 7.1973e-04 0.0000e+00
1.6453e-03 7.1453e-04 0.0000e+00
1.8084e-03 7.0598e-04 0.0000e+00
1.9732e-03 6.9512e-04 0.0000e+00
2.1373e-03 6.8353e-04 0.0000e+00
2.3005e-03 6.7088e-04 0.0000e+00
2.4611e-03 6.5735e-04 0.0000e+00
2.6182e-03 6.4404e-04 0.0000e+00
2.7722e-03 6.3121e-04 0.0000e+00
2.9213e-03 6.1888e-04 0.0000e+00
3.0726e-03 6.0626e-04 0.0000e+00
1.4879e-04 8.6616e-04 0.0000e+00
2.9758e-04 8.6615e-04 0.0000e+00
4.4635e-04 8.6609e-04 0.0000e+00
5.9511e-04 8.6595e-04 0.0000e+00
7.4395e-04 8.6575e-04 0.0000e+00
8.9293e-04 8.6552e-04 0.0000e+00
1.0423e-03 8.6512e-04 0.0000e+00
1.1931e-03 8.6389e-04 0.0000e+00
1.3477e-03 8.6001e-04 0.0000e+00
1.5088e-03 8.5262e-04 0.0000e+00
1.6734e-03 8.4250e-04 0.0000e+00
1.8372e-03 8.3160e-04 0.0000e+00
1.9998e-03 8.2084e-04 0.0000e+00
2.1608e-03 8.0963e-04 0.0000e+00
2.3197e-03 7.9840e-04 0.0000e+00
2.4762e-03 7.8740e-04 0.0000e+00
2.6304e-03 7.7669e-04 0.0000e+00
2.7825e-03 7.6605e-04 0.0000e+00
2.9376e-03 7.5160e-04 0.0000e+00
3.0966e-03 7.3282e-04 0.0000e+00
3.2264e-03 7.5036e-04 0.0000e+00
1.4912e-04 1.0095e-03 0.0000e+00
2.9825e-04 1.0094e-03 0.0000e+00
4.4751e-04 1.0093e-03 0.0000e+00
5.9687e-04 1.0091e-03 0.0000e+00
7.4658e-04 1.0085e-03 0.0000e+00
8.9736e-04 1.0073e-03 0.0000e+00
1.0509e-03 1.0043e-03 0.0000e+00
1.2097e-03 9.9829e-04 0.0000e+00
1.3732e-03 9.8911e-04 0.0000e+00
1.5373e-03 9.7821e-04 0.0000e+00
1.6998e-03 9.6778e-04 0.0000e+00
1.8609e-03 9.5767e-04 0.0000e+00
2.0203e-03 9.4768e-04 0.0000e+00
2.1781e-03 9.3799e-04 0.0000e+00
2.3339e-03 9.2858e-04 0.0000e+00
2.4880e-03 9.1954e-04 0.0000e+00
2.6405e-03 9.1057e-04 0.0000e+00
2.7917e-03 9.0156e-04 0.0000e+00
2.9416e-03 8.9226e-04 0.0000e+00
3.1020e-03 8.7859e-04 0.0000e+00
3.2629e-03 8.7436e-04 0.0000e+00
1.4978e-04 1.1520e-03 0.0000e+00
2.9950e-04 1.1518e-03 0.0000e+00
4.4973e-04 1.1511e-03 0.0000e+00
6.0096e-04 1.1501e-03 0.0000e+00
7.5414e-04 1.1475e-03 0.0000e+00
9.1110e-04 1.1426e-03 0.0000e+00
1.0727e-03 1.1346e-03 0.0000e+00
1.2365e-03 1.1243e-03 0.0000e+00
1.3994e-03 1.1135e-03 0.0000e+00
1.5608e-03 1.1035e-03 0.0000e+00
1.7207e-03 1.0939e-03 0.0000e+00
1.8791e-03 1.0848e-03 0.0000e+00
2.0360e-03 1.0762e-03 0.0000e+00
2.1913e-03 1.0681e-03 0.0000e+00
2.3452e-03 1.0603e-03 0.0000e+00
2.4979e-03 1.0527e-03 0.0000e+00
2.6493e-03 1.0451e-03 0.0000e+00
2.7997e-03 1.0374e-03 0.0000e+00
2.9490e-03 1.0295e-03 0.0000e+00
3.0944e-03 1.0216e-03 0.0000e+00
3.2430e-03 1.0097e-03 0.0000e+00
1.5122e-04 1.2925e-03 0.0000e+00
3.0286e-04 1.2916e-03 0.0000e+00
4.5608e-04 1.2891e-03 0.0000e+00
6.1231e-04 1.2850e-03 0.0000e+00
7.7218e-04 1.2786e-03 0.0000e+00
9.3466e-04 1.2693e-03 0.0000e+00
1.0977e-03 1.2586e-03 0.0000e+00
1.2597e-03 1.2481e-03 0.0000e+00
1.4203e-03 1.2383e-03 0.0000e+00
1.5793e-03 1.2293e-03 0.0000e+00
1.7370e-03 1.2209e-03 0.0000e+00
1.8933e-03 1.2132e-03 0.0000e+00
2.0483e-03 1.2060e-03 0.0000e+00
2.2020e-03 1.1992e-03 0.0000e+00
2.3546e-03 1.1928e-03 0.0000e+00
2.5063e-03 1.1864e-03 0.0000e+00
2.6569e-03 1.1801e-03 0.0000e+00
2.8067e-03 1.1736e-03 0.0000e+00
2.9555e-03 1.1670e-03 0.0000e+00
3.1076e-03 1.1565e-03 0.0000e+00
3.2625e-03 1.1421e-03 0.0000e+00
3.3817e-03 1.1605e-03 0.0000e+00
1.5472e-04 1.4282e-03 0.0000e+00
3.1085e-04 1.4253e-03 0.0000e+00
4.6938e-04 1.4198e-03 0.0000e+00
6.3049e-04 1.4118e-03 0.0000e+00
7.9348e-04 1.4021e-03 0.0000e+00
9.5651e-04 1.3916e-03 0.0000e+00
1.1182e-03 1.3813e-03 0.0000e+00
1.2782e-03 1.3719e-03 0.0000e+00
1.4368e-03 1.3634e-03 0.0000e+00
1.5940e-03 1.3557e-03 0.0000e+00
1.7499e-03 1.3487e-03 0.0000e+00
1.9046e-03 1.3424e-03 0.0000e+00
2.0582e-03 1.3365e-03 0.0000e+00
2.2108e-03 1.3310e-03 0.0000e+00
2.3625e-03 1.3257e-03 0.0000e+00
2.5133e-03 1.3205e-03 0.0000e+00
2.6634e-03 1.3153e-03 0.0000e+00
2.8126e-03 1.3100e-03 0.0000e+00
2.9610e-03 1.3046e-03 0.0000e+00
3.1086e-03 1.2990e-03 0.0000e+00
3.2612e-03 1.2861e-03 0.0000e+00
3.4042e-03 1.2769e-03 0.0000e+00
1.6055e-04 1.5555e-03 0.0000e+00
3.2227e-04 1.5504e-03 0.0000e+00
4.8537e-04 1.5423e-03 0.0000e+00
6.4911e-04 1.5324e-03 0.0000e+00
8.1233e-04 1.5221e-03 0.0000e+00
9.7419e-04 1.5125e-03 0.0000e+00
1.1343e-03 1.5037e-03 0.0000e+00
1.2928e-03 1.4958e-03 0.0000e+00
1.4498e-03 1.4889e-03 0.0000e+00
1.6055e-03 1.4827e-03 0.0000e+00
1.7600e-03 1.4771e-03 0.0000e+00
1.9135e-03 1.4721e-03 0.0000e+00
2.0661e-03 1.4675e-03 0.0000e+00
2.2179e-03 1.4632e-03 0.0000e+00
2.3689e-03 1.4591e-03 0.0000e+00
2.5191e-03 1.4550e-03 0.0000e+00
2.6687e-03 1.4508e-03 0.0000e+00
2.8175e-03 1.4466e-03 0.0000e+00
2.9656e-03 1.4423e-03 0.0000e+00
3.1129e-03 1.4379e-03 0.0000e+00
3.2599e-03 1.4334e-03 0.0000e+00
3.4105e-03 1.4252e-03 0.0000e+00
1.6692e-04 1.6734e-03 0.0000e+00
3.3379e-04 1.6673e-03 0.0000e+00
4.9990e-04 1.6587e-03 0.0000e+00
6.6453e-04 1.6494e-03 0.0000e+00
8.2718e-04 1.6406e-03 0.0000e+00
9.8786e-04 1.6328e-03 0.0000e+00
1.1467e-03 1.6260e-03 0.0000e+00
1.3039e-03 1.6200e-03 0.0000e+00
1.4597e-03 1.6147e-03 0.0000e+00
1.6143e-03 1.6101e-03 0.0000e+00
1.7678e-03 1.6060e-03 0.0000e+00
1.9204e-03 1.6023e-03 0.0000e+00
2.0722e-03 1.5989e-03 0.0000e+00
2.2234e-03 1.5957e-03 0.0000e+00
2.3739e-03 1.5926e-03 0.0000e+00
2.5237e-03 1.5896e-03 0.0000e+00
2.6729e-03 1.5865e-03 0.0000e+00
2.8214e-03 1.5834e-03 0.0000e+00
2.9692e-03 1.5802e-03 0.0000e+00
3.1163e-03 1.5769e-03 0.0000e+00
3.2645e-03 1.5735e-03 0.0000e+00
3.4189e-03 1.5699e-03 0.0000e+00
1.7203e-04 1.7835e-03 0.0000e+00
3.4267e-04 1.7782e-03 0.0000e+00
5.1065e-04 1.7715e-03 0.0000e+00
6.7562e-04 1.7645e-03 0.0000e+00
8.3782e-04 1.7583e-03 0.0000e+00
9.9764e-04 1.7528e-03 0.0000e+00
1.1555e-03 1.7482e-03 0.0000e+00
1.3118e-03 1.7442e-03 0.0000e+00
1.4667e-03 1.7408e-03 0.0000e+00
1.6205e-03 1.7378e-03 0.0000e+00
1.7733e-03 1.7351e-03 0.0000e+00
1.9254e-03 1.7327e-03 0.0000e+00
2.0767e-03 1.7305e-03 0.0000e+00
2.2274e-03 1.7284e-03 0.0000e+00
2.3775e-03 1.7264e-03 0.0000e+00
2.5270e-03 1.7244e-03 0.0000e+00
2.6759e-03 1.7223e-03 0.0000e+00
2.8242e-03 1.7203e-03 0.0000e+00
2.9718e-03 1.7181e-03 0.0000e+00
3.1188e-03 1.7159e-03 0.0000e+00
3.2678e-03 1.7136e-03 0.0000e+00
3.4270e-03 1.7112e-03 0.0000e+00
1.7510e-04 1.8885e-03 0.0000e+00
3.4794e-04 1.8857e-03 0.0000e+00
5.1701e-04 1.8820e-03 0.0000e+00
6.8228e-04 1.8785e-03 0.0000e+00
8.4424e-04 1.8754e-03 0.0000e+00
1.0036e-03 1.8727e-03 0.0000e+00
1.1609e-03 1.8705e-03 0.0000e+00
1.3166e-03 1.8686e-03 0.0000e+00
1.4709e-03 1.8670e-03 0.0000e+00
1.6243e-03 1.8656e-03 0.0000e+00
1.7767e-03 1.8644e-03 0.0000e+00
1.9284e-03 1.8633e-03 0.0000e+00
2.0795e-03 1.8622e-03 0.0000e+00
2.2299e-03 1.8612e-03 0.0000e+00
2.3798e-03 1.8602e-03 0.0000e+00
2.5291e-03 1.8592e-03 0.0000e+00
2.6778e-03 1.8582e-03 0.0000e+00
2.8260e-03 1.8572e-03 0.0000e+00
2.9735e-03 1.8561e-03 0.0000e+00
3.1203e-03 1.8550e-03 0.0000e+00
3.2699e-03 1.8538e-03 0.0000e+00
3.4321e-03 1.8525e-03 0.0000e+00
1.7610e-04 1.9912e-03 0.0000e+00
3.4963e-04 1.9913e-03 0.0000e+00
5.1914e-04 1.9916e-03 0.0000e+00
6.8454e-04 1.9919e-03 0.0000e+00
8.4650e-04 1.9922e-03 0.0000e+00
1.0057e-03 1.9925e-03 0.0000e+00
1.1628e-03 1.9928e-03 0.0000e+00
1.3183e-03 1.9931e-03 0.0000e+00
1.4726e-03 1.9934e-03 0.0000e+00
1.6257e-03 1.9935e-03 0.0000e+00
1.7781e-03 1.9937e-03 0.0000e+00
1.9296e-03 1.9939e-03 0.0000e+00
2.0806e-03 1.9940e-03 0.0000e+00
2.2309e-03 1.9941e-03 0.0000e+00
2.3807e-03 1.9942e-03 0.0000e+00
2.5299e-03 1.9942e-03 0.0000e+00
2.6786e-03 1.9942e-03 0.0000e+00
2.8267e-03 1.9942e-03 0.0000e+00
2.9741e-03 1.9941e-03 0.0000e+00
3.1209e-03 1.9941e-03 0.0000e+00
3.2707e-03 1.9940e-03 0.0000e+00
3.4339e-03 1.9939e-03 0.0000e+00
1.7508e-04 2.0938e-03 0.0000e+00
3.4792e-04 2.0970e-03 0.0000e+00
5.1707e-04 2.1010e-03 0.0000e+00
6.8247e-04 2.1052e-03 0.0000e+00
8.4455e-04 2.1089e-03 0.0000e+00
1.0040e-03 2.1123e-03 0.0000e+00
1.1614e-03 2.1151e-03 0.0000e+00
1.3171e-03 2.1175e-03 0.0000e+00
1.4715e-03 2.1196e-03 0.0000e+00
1.6249e-03 2.1215e-03 0.0000e+00
1.7773e-03 2.1230e-03 0.0000e+00
1.9290e-03 2.1245e-03 0.0000e+00
2.0800e-03 2.1258e-03 0.0000e+00
2.2304e-03 2.1270e-03 0.0000e+00
2.3803e-03 2.1281e-03 0.0000e+00
2.5295e-03 2.1291e-03 0.0000e+00
2.6782e-03 2.1302e-03 0.0000e+00
2.8263e-03 2.1312e-03 0.0000e+00
2.9738e-03 2.1322e-03 0.0000e+00
3.1206e-03 2.1332e-03 0.0000e+00
3.2702e-03 2.1342e-03 0.0000e+00
3.4326e-03 2.1353e-03 0.0000e+00
1.7203e-04 2.1989e-03 0.0000e+00
3.4266e-04 2.2043e-03 0.0000e+00
5.1076e-04 2.2115e-03 0.0000e+00
6.7592e-04 2.2189e-03 0.0000e+00
8.3840e-04 2.2259e-03 0.0000e+00
9.9842e-04 2.2319e-03 0.0000e+00
1.1565e-03 2.2372e-03 0.0000e+00
1.3128e-03 2.2418e-03 0.0000e+00
1.4678e-03 2.2458e-03 0.0000e+00
1.6216e-03 2.2492e-03 0.0000e+00
1.7745e-03 2.2523e-03 0.0000e+00
1.9265e-03 2.2550e-03 0.0000e+00
2.0778e-03 2.2575e-03 0.0000e+00
2.2284e-03 2.2598e-03 0.0000e+00
2.3785e-03 2.2620e-03 0.0000e+00
2.5279e-03 2.2641e-03 0.0000e+00
2.6767e-03 2.2661e-03 0.0000e+00
2.8249e-03 2.2682e-03 0.0000e+00
2.9725e-03 2.2702e-03 0.0000e+00
3.1193e-03 2.2723e-03 0.0000e+00
3.2685e-03 2.2744e-03 0.0000e+00
3.4318e-03 2.2802e-03 0.0000e+00
1.6690e-04 2.3089e-03 0.0000e+00
3.3388e-04 2.3153e-03 0.0000e+00
5.0005e-04 2.3241e-03 0.0000e+00
6.6491e-04 2.3338e-03 0.0000e+00
8.2786e-04 2.3431e-03 0.0000e+00
9.8887e-04 2.3517e-03 0.0000e+00
1.1479e-03 2.3592e-03 0.0000e+00
1.3053e-03 2.3659e-03 0.0000e+00
1.4613e-03 2.3716e-03 0.0000e+00
1.6160e-03 2.3767e-03 0.0000e+00
1.7695e-03 2.3813e-03 0.0000e+00
1.9221e-03 2.3854e-03 0.0000e+00
2.0739e-03 2.3891e-03 0.0000e+00
2.2249e-03 2.3925e-03 0.0000e+00
2.3753e-03 2.3957e-03 0.0000e+00
2.5250e-03 2.3989e-03 0.0000e+00
2.6740e-03 2.4020e-03 0.0000e+00
2.8224e-03 2.4051e-03 0.0000e+00
2.9701e-03 2.4082e-03 0.0000e+00
3.1172e-03 2.4113e-03 0.0000e+00
3.2727e-03 2.4217e-03 0.0000e+00
3.4303e-03 2.4287e-03 0.0000e+00
1.6057e-04 2.4268e-03 0.0000e+00
3.2237e-04 2.4320e-03 0.0000e+00
4.8570e-04 2.4404e-03 0.0000e+00
6.4957e-04 2.4505e-03 0.0000e+00
8.1306e-04 2.4613e-03 0.0000e+00
9.7513e-04 2.4716e-03 0.0000e+00
1.1356e-03 2.4811e-03 0.0000e+00
1.2945e-03 2.4895e-03 0.0000e+00
1.4518e-03 2.4971e-03 0.0000e+00
1.6077e-03 2.5039e-03 0.0000e+00
1.7623e-03 2.5100e-03 0.0000e+00
1.9157e-03 2.5154e-03 0.0000e+00
2.0683e-03 2.5204e-03 0.0000e+00
2.2199e-03 2.5250e-03 0.0000e+00
2.3708e-03 2.5293e-03 0.0000e+00
2.5209e-03 2.5336e-03 0.0000e+00
2.6703e-03 2.5377e-03 0.0000e+00
2.8189e-03 2.5419e-03 0.0000e+00
2.9669e-03 2.5461e-03 0.0000e+00
3.1212e-03 2.5575e-03 0.0000e+00
3.2679e-03 2.5619e-03 0.0000e+00
3.3986e-03 2.5482e-03 0.0000e+00
1.5486e-04 2.5540e-03 0.0000e+00
3.1100e-04 2.5570e-03 0.0000e+00
4.6975e-04 2.5624e-03 0.0000e+00
6.3127e-04 2.5708e-03 0.0000e+00
7.9415e-04 2.5810e-03 0.0000e+00
9.5723e-04 2.5921e-03 0.0000e+00
1.1193e-03 2.6028e-03 0.0000e+00
1.2800e-03 2.6129e-03 0.0000e+00
1.4391e-03 2.6221e-03 0.0000e+00
1.5965e-03 2.6306e-03 0.0000e+00
1.7525e-03 2.6381e-03 0.0000e+00
1.9073e-03 2.6450e-03 0.0000e+00
2.0608e-03 2.6513e-03 0.0000e+00
2.2133e-03 2.6572e-03 0.0000e+00
2.3648e-03 2.6627e-03 0.0000e+00
2.5155e-03 2.6680e-03 0.0000e+00
2.6654e-03 2.6733e-03 0.0000e+00
2.8144e-03 2.6786e-03 0.0000e+00
2.9698e-03 2.6911e-03 0.0000e+00
3.1172e-03 2.6966e-03 0.0000e+00
3.2459e-03 2.6840e-03 0.0000e+00
3.3991e-03 2.7001e-03 0.0000e+00
1.5127e-04 2.6895e-03 0.0000e+00
3.0314e-04 2.6905e-03 0.0000e+00
4.5655e-04 2.6928e-03 0.0000e+00
6.1294e-04 2.6971e-03 0.0000e+00
7.7295e-04 2.7046e-03 0.0000e+00
9.3526e-04 2.7142e-03 0.0000e+00
1.0988e-03 2.7249e-03 0.0000e+00
1.2614e-03 2.7359e-03 0.0000e+00
1.4225e-03 2.7467e-03 0.0000e+00
1.5819e-03 2.7564e-03 0.0000e+00
1.7399e-03 2.7656e-03 0.0000e+00
1.8963e-03 2.7739e-03 0.0000e+00
2.0514e-03 2.7817e-03 0.0000e+00
2.2050e-03 2.7889e-03 0.0000e+00
2.3575e-03 2.7957e-03 0.0000e+00
2.5089e-03 2.8022e-03 0.0000e+00
2.6594e-03 2.8087e-03 0.0000e+00
2.8160e-03 2.8223e-03 0.0000e+00
2.9646e-03 2.8289e-03 0.0000e+00
3.0944e-03 2.8175e-03 0.0000e+00
3.2537e-03 2.8351e-03 0.0000e+00
3.3959e-03 2.8386e-03 0.0000e+00
1.4970e-04 2.8299e-03 0.0000e+00
2.9943e-04 2.8301e-03 0.0000e+00
4.4959e-04 2.8307e-03 0.0000e+00
6.0065e-04 2.8320e-03 0.0000e+00
7.5405e-04 2.8351e-03 0.0000e+00
9.1207e-04 2.8404e-03 0.0000e+00
1.0742e-03 2.8483e-03 0.0000e+00
1.2380e-03 2.8593e-03 0.0000e+00
1.4012e-03 2.8706e-03 0.0000e+00
1.5631e-03 2.8817e-03 0.0000e+00
1.7235e-03 2.8920e-03 0.0000e+00
1.8823e-03 2.9019e-03 0.0000e+00
2.0394e-03 2.9111e-03 0.0000e+00
2.1948e-03 2.9199e-03 0.0000e+00
2.3486e-03 2.9281e-03 0.0000e+00
2.5011e-03 2.9361e-03 0.0000e+00
2.6593e-03 2.9509e-03 0.0000e+00
2.8094e-03 2.9587e-03 0.0000e+00
2.9406e-03 2.9484e-03 0.0000e+00
3.0992e-03 2.9672e-03 0.0000e+00
3.2545e-03 2.9756e-03 0.0000e+00
1.4906e-04 2.9725e-03 0.0000e+00
2.9804e-04 2.9726e-03 0.0000e+00
4.4710e-04 2.9728e-03 0.0000e+00
5.9629e-04 2.9732e-03 0.0000e+00
7.4602e-04 2.9738e-03 0.0000e+00
8.9704e-04 2.9749e-03 0.0000e+00
1.0510e-03 2.9783e-03 0.0000e+00
1.2103e-03 2.9847e-03 0.0000e+00
1.3744e-03 2.9945e-03 0.0000e+00
1.5390e-03 3.0060e-03 0.0000e+00
1.7022e-03 3.0174e-03 0.0000e+00
1.8639e-03 3.0283e-03 0.0000e+00
2.0239e-03 3.0393e-03 0.0000e+00
2.1818e-03 3.0496e-03 0.0000e+00
2.3378e-03 3.0597e-03 0.0000e+00
2.4952e-03 3.0728e-03 0.0000e+00
2.6509e-03 3.0891e-03 0.0000e+00
2.7840e-03 3.0768e-03 0.0000e+00
2.9441e-03 3.0967e-03 0.0000e+00
3.0925e-03 3.1059e-03 0.0000e+00
3.2434e-03 3.1155e-03 0.0000e+00
1.4868e-04 3.1161e-03 0.0000e+00
2.9732e-04 3.1162e-03 0.0000e+00
4.4595e-04 3.1163e-03 0.0000e+00
5.9469e-04 3.1165e-03 0.0000e+00
7.4357e-04 3.1166e-03 0.0000e+00
8.9245e-04 3.1167e-03 0.0000e+00
1.0418e-03 3.1172e-03 0.0000e+00
1.1927e-03 3.1187e-03 0.0000e+00
1.3478e-03 3.1229e-03 0.0000e+00
1.5096e-03 3.1308e-03 0.0000e+00
1.6750e-03 3.1416e-03 0.0000e+00
1.8397e-03 3.1536e-03 0.0000e+00
2.0029e-03 3.1653e-03 0.0000e+00
2.1646e-03 3.1776e-03 0.0000e+00
2.3237e-03 3.1894e-03 0.0000e+00
2.4756e-03 3.2009e-03 0.0000e+00
2.6227e-03 3.2118e-03 0.0000e+00
2.7860e-03 3.2233e-03 0.0000e+00
2.9362e-03 3.2340e-03 0.0000e+00
3.0820e-03 3.2415e-03 0.0000e+00
3.2148e-03 3.2822e-03 0.0000e+00
1.4844e-04 3.2602e-03 0.0000e+00
2.9686e-04 3.2603e-03 0.0000e+00
4.4531e-04 3.2604e-03 0.0000e+00
5.9380e-04 3.2605e-03 0.0000e+00
7.4225e-04 3.2606e-03 0.0000e+00
8.9067e-04 3.2607e-03 0.0000e+00
1.0391e-03 3.2607e-03 0.0000e+00
1.1877e-03 3.2608e-03 0.0000e+00
1.3369e-03 3.2612e-03 0.0000e+00
1.4884e-03 3.2631e-03 0.0000e+00
1.6457e-03 3.2688e-03 0.0000e+00
1.8096e-03 3.2780e-03 0.0000e+00
1.9755e-03 3.2900e-03 0.0000e+00
2.1405e-03 3.3026e-03 0.0000e+00
2.3045e-03 3.3165e-03 0.0000e+00
2.4696e-03 3.3279e-03 0.0000e+00
2.6317e-03 3.3361e-03 0.0000e+00
2.7638e-03 3.3676e-03 0.0000e+00
2.9273e-03 3.3709e-03 0.0000e+00
3.0923e-03 3.3844e-03 0.0000e+00
1.4828e-04 3.4047e-03 0.0000e+00
2.9657e-04 3.4048e-03 0.0000e+00
4.4486e-04 3.4049e-03 0.0000e+00
5.9313e-04 3.4050e-03 0.0000e+00
7.4136e-04 3.4051e-03 0.0000e+00
8.8958e-04 3.4052e-03 0.0000e+00
1.0378e-03 3.4052e-03 0.0000e+00
1.1860e-03 3.4052e-03 0.0000e+00
1.3343e-03 3.4050e-03 0.0000e+00
1.4826e-03 3.4050e-03 0.0000e+00
1.6319e-03 3.4054e-03 0.0000e+00
1.7846e-03 3.4086e-03 0.0000e+00
1.9446e-03 3.4159e-03 0.0000e+00
2.1101e-03 3.4267e-03 0.0000e+00
2.2770e-03 3.4401e-03 0.0000e+00
2.4437e-03 3.4565e-03 0.0000e+00
2.6153e-03 3.4686e-03 0.0000e+00
2.7734e-03 3.4863e-03 0.0000e+00
2.9075e-03 3.5201e-03 0.0000e+00
3.0678e-03 3.5242e-03 0.0000e+00
1.4815e-04 3.5495e-03 0.0000e+00
2.9632e-04 3.5495e-03 0.0000e+00
4.4444e-04 3.5497e-03 0.0000e+00
5.9255e-04 3.5498e-03 0.0000e+00
7.4066e-04 3.5499e-03 0.0000e+00
8.8877e-04 3.5500e-03 0.0000e+00
1.0369e-03 3.5501e-03 0.0000e+00
1.1850e-03 3.5500e-03 0.0000e+00
1.3331e-03 3.5499e-03 0.0000e+00
1.4811e-03 3.5497e-03 0.0000e+00
1.6290e-03 3.5495e-03 0.0000e+00
1.7772e-03 3.5494e-03 0.0000e+00
1.9270e-03 3.5507e-03 0.0000e+00
2.0820e-03 3.5553e-03 0.0000e+00
2.2449e-03 3.5642e-03 0.0000e+00
2.4123e-03 3.5784e-03 0.0000e+00
2.5822e-03 3.5977e-03 0.0000e+00
2.7590e-03 3.6182e-03 0.0000e+00
2.9227e-03 3.6474e-03 0.0000e+00
3.0432e-03 3.6572e-03 0.0000e+00
1.4803e-04 3.6954e-03 0.0000e+00
2.9602e-04 3.6955e-03 0.0000e+00
4.4402e-04 3.6957e-03 0.0000e+00
5.9202e-04 3.6958e-03 0.0000e+00
7.4004e-04 3.6959e-03 0.0000e+00
8.8808e-04 3.6960e-03 0.0000e+00
1.0361e-03 3.6960e-03 0.0000e+00
1.1842e-03 3.6960e-03 0.0000e+00
1.3322e-03 3.6959e-03 0.0000e+00
1.4801e-03 3.6958e-03 0.0000e+00
1.6280e-03 3.6957e-03 0.0000e+00
1.7758e-03 3.6955e-03 0.0000e+00
1.9236e-03 3.6952e-03 0.0000e+00
2.0718e-03 3.6954e-03 0.0000e+00
2.2224e-03 3.6977e-03 0.0000e+00
2.3803e-03 3.7049e-03 0.0000e+00
2.5470e-03 3.7178e-03 0.0000e+00
2.7159e-03 3.7404e-03 0.0000e+00
2.8868e-03 3.7660e-03 0.0000e+00
3.0497e-03 3.7909e-03 0.0000e+00
1.4786e-04 3.8445e-03 0.0000e+00
2.9569e-04 3.8455e-03 0.0000e+00
4.4356e-04 3.8456e-03 0.0000e+00
5.9149e-04 3.8457e-03 0.0000e+00
7.3945e-04 3.8458e-03 0.0000e+00
8.8745e-04 3.8459e-03 0.0000e+00
1.0355e-03 3.8459e-03 0.0000e+00
1.1835e-03 3.8459e-03 0.0000e+00
1.3314e-03 3.8459e-03 0.0000e+00
1.4794e-03 3.8458e-03 0.0000e+00
1.6273e-03 3.8458e-03 0.0000e+00
1.7751e-03 3.8456e-03 0.0000e+00
1.9228e-03 3.8455e-03 0.0000e+00