# vtk DataFile Version 3.0
VTK Example
ASCII
DATASET UNSTRUCTURED_GRID
POINTS 972 float 
0 -9.04186e-06 0.0
0.00267421 -9.91815e-06 0.0
0.00267418 0.00609133 0.0
0 0.00609133 0.0
0.000145074 -9.61226e-06 0.0
0.000300734 -9.63173e-06 0.0
0.000452927 -9.62367e-06 0.0
0.000605439 -9.63385e-06 0.0
0.000758712 -9.64174e-06 0.0
0.000912611 -9.65037e-06 0.0
0.00106658 -9.65861e-06 0.0
0.00122157 -9.67241e-06 0.0
0.00137823 -9.68293e-06 0.0
0.00153445 -9.69342e-06 0.0
0.00169137 -9.70639e-06 0.0
0.00184903 -9.72058e-06 0.0
0.00200765 -9.73462e-06 0.0
0.00216739 -9.74858e-06 0.0
0.00232906 -9.77315e-06 0.0
0.00249466 -9.77148e-06 0.0
0.00268444 9.81908e-05 0.0
0.00269173 0.00021355 0.0
0.00269982 0.000332925 0.0
0.00270774 0.000453251 0.0
0.0027157 0.000574258 0.0
0.0027236 0.0006954 0.0
0.00273149 0.000816174 0.0
0.00273941 0.000937193 0.0
0.00274743 0.00105893 0.0
0.0027554 0.00117972 0.0
0.0027633 0.0013004 0.0
0.00277105 0.00142098 0.0
0.00277858 0.00154146 0.0
0.0027858 0.00166184 0.0
0.00279264 0.00178213 0.0
0.00279905 0.00190232 0.0
0.00280497 0.00202241 0.0
0.00281034 0.00214242 0.0
0.00281513 0.00226234 0.0
0.0028193 0.00238218 0.0
0.00282282 0.00250195 0.0
0.00282566 0.00262165 0.0
0.00282781 0.0027413 0.0
0.00282925 0.00286091 0.0
0.00282998 0.0029805 0.0
0.00282999 0.00310089 0.0
0.00282927 0.00322048 0.0
0.00282784 0.00334009 0.0
0.0028257 0.00345974 0.0
0.00282287 0.00357944 0.0
0.00281936 0.00369921 0.0
0.0028152 0.00381905 0.0
0.00281042 0.00393898 0.0
0.00280505 0.00405899 0.0
0.00279914 0.00417909 0.0
0.00279274 0.00429928 0.0
0.00278589 0.00441958 0.0
0.00277867 0.00453997 0.0
0.00277114 0.00466046 0.0
0.00276338 0.00478105 0.0
0.00275547 0.00490174 0.0
0.00274749 0.00502253 0.0
0.00273946 0.00514427 0.0
0.00273152 0.00526529 0.0
0.0027236 0.00538639 0.0
0.00271568 0.00550745 0.0
0.00270772 0.00562837 0.0
0.00269979 0.00574869 0.0
0.0026917 0.00586797 0.0
0.0026844 0.00598331 0.0
0.00249461 0.00609118 0.0
0.00232899 0.00609118 0.0
0.00216732 0.00609116 0.0
0.00200757 0.00609114 0.0
0.00184895 0.00609113 0.0
0.00169129 0.00609111 0.0
0.00153437 0.0060911 0.0
0.00137815 0.00609109 0.0
0.00122148 0.00609108 0.0
0.00106648 0.00609107 0.0
0.000912475 0.00609106 0.0
0.000758518 0.00609105 0.0
0.000605133 0.00609104 0.0
0.000452499 0.00609103 0.0
0.000300543 0.00609103 0.0
0.000149653 0.00609098 0.0
0 0.00595064 0.0
0 0.00581365 0.0
0 0.00567912 0.0
0 0.00554641 0.0
0 0.00541522 0.0
0 0.00528551 0.0
0 0.0051573 0.0
0 0.00503068 0.0
0 0.00490491 0.0
0 0.00478177 0.0
0 0.00466046 0.0
0 0.00454097 0.0
0 0.00442323 0.0
0 0.00430712 0.0
0 0.0041925 0.0
0 0.0040792 0.0
0 0.00396706 0.0
0 0.00385593 0.0
0 0.00374566 0.0
0 0.00363611 0.0
0 0.00352715 0.0
0 0.00341866 0.0
0 0.00331055 0.0
0 0.00320268 0.0
0 0.00309497 0.0
0 0.00298658 0.0
0 0.00287887 0.0
0 0.002771 0.0
0 0.00266288 0.0
0 0.00255438 0.0
0 0.00244541 0.0
0 0.00233584 0.0
0 0.00222556 0.0
0 0.00211441 0.0
0 0.00200225 0.0
0 0.00188894 0.0
0 0.00177429 0.0
0 0.00165816 0.0
0 0.00154039 0.0
0 0.00142087 0.0
0 0.00129953 0.0
0 0.00117635 0.0
0 0.00105053 0.0
0 0.000923864 0.0
0 0.000795929 0.0
0 0.000666011 0.0
0 0.000534453 0.0
0 0.000400948 0.0
0 0.000264108 0.0
0 0.000120415 0.0
0.000149201 0.000126851 0.0
0.000151747 0.000264134 0.0
0.000153618 0.000400276 0.0
0.000154955 0.000533863 0.0
0.000155981 0.000665492 0.0
0.000156922 0.000795442 0.0
0.000157886 0.000923355 0.0
0.000158917 0.00104999 0.0
0.000160035 0.00117576 0.0
0.000161213 0.00129887 0.0
0.000162427 0.00142015 0.0
0.000163633 0.00153962 0.0
0.000164798 0.00165735 0.0
0.000165887 0.00177345 0.0
0.000166882 0.00188809 0.0
0.000167774 0.00200143 0.0
0.000168561 0.00211363 0.0
0.000169247 0.00222484 0.0
0.000169837 0.00233521 0.0
0.00017033 0.00244486 0.0
0.000170736 0.00255393 0.0
0.000171059 0.00266252 0.0
0.0001713 0.00277075 0.0
0.000171459 0.00287871 0.0
0.000171539 0.00298653 0.0
0.00017154 0.00309503 0.0
0.000171462 0.00320284 0.0
0.000171305 0.0033108 0.0
0.000171066 0.00341902 0.0
0.000170744 0.00352761 0.0
0.00017034 0.00363666 0.0
0.000169848 0.0037463 0.0
0.00016926 0.00385665 0.0
0.000168575 0.00396784 0.0
0.000167788 0.00408002 0.0
0.000166898 0.00419334 0.0
0.000165904 0.00430796 0.0
0.000164816 0.00442404 0.0
0.000163652 0.00454174 0.0
0.000162447 0.00466118 0.0
0.000161235 0.00478242 0.0
0.00016006 0.0049055 0.0
0.000158947 0.00503122 0.0
0.000157923 0.00515781 0.0
0.000156975 0.00528599 0.0
0.000156082 0.00541571 0.0
0.000155206 0.00554692 0.0
0.000154261 0.00567971 0.0
0.000153113 0.00581434 0.0
0.000151584 0.0059513 0.0
0.000303 0.000128338 0.0
0.000304848 0.000264394 0.0
0.000307304 0.000399254 0.0
0.000309719 0.000532629 0.0
0.000311804 0.000664324 0.0
0.000313742 0.000794279 0.0
0.000315704 0.000922148 0.0
0.000317792 0.00104868 0.0
0.000320042 0.00117433 0.0
0.0003224 0.0012973 0.0
0.000324817 0.00141846 0.0
0.00032721 0.00153781 0.0
0.000329508 0.00165548 0.0
0.000331653 0.00177156 0.0
0.000333606 0.00188623 0.0
0.000335354 0.00199964 0.0
0.000336895 0.00211195 0.0
0.00033824 0.00222331 0.0
0.000339401 0.00233385 0.0
0.000340381 0.00244369 0.0
0.000341182 0.00255295 0.0
0.000341819 0.00266175 0.0
0.000342296 0.00277019 0.0
0.000342614 0.00287838 0.0
0.000342773 0.00298642 0.0
0.000342775 0.00309514 0.0
0.00034262 0.00320317 0.0
0.000342306 0.00331135 0.0
0.000341832 0.00341979 0.0
0.000341199 0.00352858 0.0
0.0003404 0.00363783 0.0
0.000339423 0.00374765 0.0
0.000338265 0.00385818 0.0
0.000336922 0.00396952 0.0
0.000335383 0.00408181 0.0
0.000333637 0.0041952 0.0
0.000331686 0.00430985 0.0
0.000329543 0.00442591 0.0
0.000327249 0.00454355 0.0
0.000324859 0.00466287 0.0
0.000322446 0.00478399 0.0
0.000320093 0.00490693 0.0
0.000317852 0.00503253 0.0
0.000315783 0.005159 0.0
0.000313863 0.00528713 0.0
0.000312045 0.00541682 0.0
0.000310242 0.00554808 0.0
0.000308308 0.00568097 0.0
0.000306048 0.0058157 0.0
0.000303364 0.0059524 0.0
0.000456027 0.000127964 0.0
0.000458826 0.000263832 0.0
0.000461639 0.000398143 0.0
0.000464693 0.000531002 0.0
0.000467737 0.000662522 0.0
0.000470704 0.000792414 0.0
0.000473715 0.000920165 0.0
0.000476898 0.00104654 0.0
0.000480303 0.00117197 0.0
0.00048384 0.00129473 0.0
0.000487438 0.00141568 0.0
0.000490972 0.00153489 0.0
0.000494346 0.00165246 0.0
0.000497482 0.00176854 0.0
0.000500336 0.00188327 0.0
0.000502886 0.00199681 0.0
0.000505139 0.00210931 0.0
0.000507107 0.0022209 0.0
0.000508808 0.00233171 0.0
0.000510256 0.00244185 0.0
0.000511446 0.00255143 0.0
0.000512386 0.00266055 0.0
0.00051309 0.00276933 0.0
0.000513561 0.00287786 0.0
0.000513798 0.00298624 0.0
0.000513801 0.00309531 0.0
0.00051357 0.00320369 0.0
0.000513104 0.00331222 0.0
0.000512404 0.00342099 0.0
0.000511469 0.0035301 0.0
0.000510284 0.00363967 0.0
0.00050884 0.00374979 0.0
0.000507143 0.00386059 0.0
0.000505179 0.00397216 0.0
0.000502929 0.00408464 0.0
0.000500382 0.00419816 0.0
0.000497532 0.00431287 0.0
0.000494399 0.00442892 0.0
0.000491029 0.00454647 0.0
0.000487501 0.00466565 0.0
0.000483909 0.00478656 0.0
0.000480381 0.00490929 0.0
0.000476993 0.00503467 0.0
0.000473845 0.00516098 0.0
0.000470907 0.00528897 0.0
0.000468113 0.00541861 0.0
0.000465335 0.00554986 0.0
0.000462409 0.00568277 0.0
0.000459218 0.00581733 0.0
0.000455819 0.00595346 0.0
0.000609039 0.000127128 0.0
0.000612662 0.000262503 0.0
0.000616247 0.000396559 0.0
0.000619892 0.000529061 0.0
0.000623718 0.000660238 0.0
0.000627676 0.000789887 0.0
0.00063177 0.000917426 0.0
0.000636091 0.00104353 0.0
0.000640669 0.00116867 0.0
0.000645373 0.00129113 0.0
0.000650102 0.00141183 0.0
0.000654706 0.00153086 0.0
0.000659068 0.00164835 0.0
0.000663108 0.00176444 0.0
0.000666777 0.00187928 0.0
0.00067006 0.00199302 0.0
0.000672966 0.00210578 0.0
0.000675513 0.00221769 0.0
0.000677715 0.00232886 0.0
0.000679597 0.00243939 0.0
0.000681159 0.00254939 0.0
0.000682395 0.00265896 0.0
0.000683318 0.00276818 0.0
0.000683934 0.00287716 0.0
0.000684245 0.002986 0.0
0.000684248 0.00309554 0.0
0.000683945 0.00320438 0.0
0.000683336 0.00331336 0.0
0.00068242 0.00342257 0.0
0.000681189 0.00353213 0.0
0.000679634 0.00364212 0.0
0.000677758 0.00375264 0.0
0.00067556 0.0038638 0.0
0.000673018 0.00397569 0.0
0.000670117 0.00408843 0.0
0.000666838 0.00420215 0.0
0.000663175 0.00431697 0.0
0.000659139 0.00443304 0.0
0.000654783 0.0045505 0.0
0.000650186 0.0046695 0.0
0.000645466 0.00479016 0.0
0.000640776 0.00491259 0.0
0.000636222 0.00503767 0.0
0.000631951 0.00516372 0.0
0.000627943 0.00529152 0.0
0.000624129 0.00542101 0.0
0.00062038 0.00555214 0.0
0.000616572 0.00568482 0.0
0.000612685 0.00581896 0.0
0.000608827 0.0059544 0.0
0.0007627 0.000126275 0.0
0.00076686 0.000260996 0.0
0.000771138 0.000394569 0.0
0.000775524 0.000526719 0.0
0.000780118 0.000657511 0.0
0.000785011 0.000786777 0.0
0.000790192 0.000913935 0.0
0.000795675 0.00103967 0.0
0.000801432 0.0011644 0.0
0.00080726 0.00128651 0.0
0.000813048 0.00140691 0.0
0.000818619 0.00152576 0.0
0.000823861 0.00164318 0.0
0.000828696 0.00175934 0.0
0.000833086 0.00187436 0.0
0.000837022 0.00198836 0.0
0.000840517 0.00210146 0.0
0.000843589 0.00221377 0.0
0.000846258 0.00232538 0.0
0.000848537 0.0024364 0.0
0.00085044 0.00254691 0.0
0.000851961 0.00265701 0.0
0.000853095 0.00276678 0.0
0.000853849 0.00287632 0.0
0.000854229 0.00298572 0.0
0.000854234 0.00309582 0.0
0.000853862 0.00320522 0.0
0.000853116 0.00331475 0.0
0.00085199 0.00342452 0.0
0.000850477 0.00353461 0.0
0.000848581 0.00364511 0.0
0.00084631 0.00375611 0.0
0.000843647 0.00386771 0.0
0.000840581 0.00398001 0.0
0.000837093 0.00409309 0.0
0.000833162 0.00420707 0.0
0.000828778 0.00432207 0.0
0.00082395 0.0044382 0.0
0.000818714 0.0045556 0.0
0.000813152 0.00467442 0.0
0.000807376 0.00479479 0.0
0.000801565 0.00491686 0.0
0.000795837 0.00504155 0.0
0.000790406 0.00516724 0.0
0.000785283 0.00529471 0.0
0.000780435 0.00542391 0.0
0.000775773 0.00555471 0.0
0.000771226 0.00568697 0.0
0.000766794 0.00582052 0.0
0.000762538 0.00595525 0.0
0.000916949 0.00012546 0.0
0.000921552 0.000259455 0.0
[...]
POINT_DATA 972
VECTORS Position float
0.0000e+00 -9.0419e-06 0.0000e+00
2.6742e-03 -9.9181e-06 0.0000e+00
2.6742e-03 6.0913e-03 0.0000e+00
0.0000e+00 6.0913e-03 0.0000e+00
1.4507e-04 -9.6123e-06 0.0000e+00
3.0073e-04 -9.6317e-06 0.0000e+00
4.5293e-04 -9.6237e-06 0.0000e+00
6.0544e-04 -9.6338e-06 0.0000e+00
7.5871e-04 -9.6417e-06 0.0000e+00
9.1261e-04 -9.6504e-06 0.0000e+00
1.0666e-03 -9.6586e-06 0.0000e+00
1.2216e-03 -9.6724e-06 0.0000e+00
1.3782e-03 -9.6829e-06 0.0000e+00
1.5345e-03 -9.6934e-06 0.0000e+00
1.6914e-03 -9.7064e-06 0.0000e+00
1.8490e-03 -9.7206e-06 0.0000e+00
2.0076e-03 -9.7346e-06 0.0000e+00
2.1674e-03 -9.7486e-06 0.0000e+00
2.3291e-03 -9.7732e-06 0.0000e+00
2.4947e-03 -9.7715e-06 0.0000e+00
2.6844e-03 9.8191e-05 0.0000e+00
2.6917e-03 2.1355e-04 0.0000e+00
2.6998e-03 3.3293e-04 0.0000e+00
2.7077e-03 4.5325e-04 0.0000e+00
2.7157e-03 5.7426e-04 0.0000e+00
2.7236e-03 6.9540e-04 0.0000e+00
2.7315e-03 8.1617e-04 0.0000e+00
2.7394e-03 9.3719e-04 0.0000e+00
2.7474e-03 1.0589e-03 0.0000e+00
2.7554e-03 1.1797e-03 0.0000e+00
2.7633e-03 1.3004e-03 0.0000e+00
2.7711e-03 1.4210e-03 0.0000e+00
2.7786e-03 1.5415e-03 0.0000e+00
2.7858e-03 1.6618e-03 0.0000e+00
2.7926e-03 1.7821e-03 0.0000e+00
2.7990e-03 1.9023e-03 0.0000e+00
2.8050e-03 2.0224e-03 0.0000e+00
2.8103e-03 2.1424e-03 0.0000e+00
2.8151e-03 2.2623e-03 0.0000e+00
2.8193e-03 2.3822e-03 0.0000e+00
2.8228e-03 2.5019e-03 0.0000e+00
2.8257e-03 2.6217e-03 0.0000e+00
2.8278e-03 2.7413e-03 0.0000e+00
2.8293e-03 2.8609e-03 0.0000e+00
2.8300e-03 2.9805e-03 0.0000e+00
2.8300e-03 3.1009e-03 0.0000e+00
2.8293e-03 3.2205e-03 0.0000e+00
2.8278e-03 3.3401e-03 0.0000e+00
2.8257e-03 3.4597e-03 0.0000e+00
2.8229e-03 3.5794e-03 0.0000e+00
2.8194e-03 3.6992e-03 0.0000e+00
2.8152e-03 3.8191e-03 0.0000e+00
2.8104e-03 3.9390e-03 0.0000e+00
2.8051e-03 4.0590e-03 0.0000e+00
2.7991e-03 4.1791e-03 0.0000e+00
2.7927e-03 4.2993e-03 0.0000e+00
2.7859e-03 4.4196e-03 0.0000e+00
2.7787e-03 4.5400e-03 0.0000e+00
2.7711e-03 4.6605e-03 0.0000e+00
2.7634e-03 4.7810e-03 0.0000e+00
2.7555e-03 4.9017e-03 0.0000e+00
2.7475e-03 5.0225e-03 0.0000e+00
2.7395e-03 5.1443e-03 0.0000e+00
2.7315e-03 5.2653e-03 0.0000e+00
2.7236e-03 5.3864e-03 0.0000e+00
2.7157e-03 5.5075e-03 0.0000e+00
2.7077e-03 5.6284e-03 0.0000e+00
2.6998e-03 5.7487e-03 0.0000e+00
2.6917e-03 5.8680e-03 0.0000e+00
2.6844e-03 5.9833e-03 0.0000e+00
2.4946e-03 6.0912e-03 0.0000e+00
2.3290e-03 6.0912e-03 0.0000e+00
2.1673e-03 6.0912e-03 0.0000e+00
2.0076e-03 6.0911e-03 0.0000e+00
1.8490e-03 6.0911e-03 0.0000e+00
1.6913e-03 6.0911e-03 0.0000e+00
1.5344e-03 6.0911e-03 0.0000e+00
1.3782e-03 6.0911e-03 0.0000e+00
1.2215e-03 6.0911e-03 0.0000e+00
1.0665e-03 6.0911e-03 0.0000e+00
9.1247e-04 6.0911e-03 0.0000e+00
7.5852e-04 6.0910e-03 0.0000e+00
6.0513e-04 6.0910e-03 0.0000e+00
4.5250e-04 6.0910e-03 0.0000e+00
3.0054e-04 6.0910e-03 0.0000e+00
1.4965e-04 6.0910e-03 0.0000e+00
0.0000e+00 5.9506e-03 0.0000e+00
0.0000e+00 5.8136e-03 0.0000e+00
0.0000e+00 5.6791e-03 0.0000e+00
0.0000e+00 5.5464e-03 0.0000e+00
0.0000e+00 5.4152e-03 0.0000e+00
0.0000e+00 5.2855e-03 0.0000e+00
0.0000e+00 5.1573e-03 0.0000e+00
0.0000e+00 5.0307e-03 0.0000e+00
0.0000e+00 4.9049e-03 0.0000e+00
0.0000e+00 4.7818e-03 0.0000e+00
0.0000e+00 4.6605e-03 0.0000e+00
0.0000e+00 4.5410e-03 0.0000e+00
0.0000e+00 4.4232e-03 0.0000e+00
0.0000e+00 4.3071e-03 0.0000e+00
0.0000e+00 4.1925e-03 0.0000e+00
0.0000e+00 4.0792e-03 0.0000e+00
0.0000e+00 3.9671e-03 0.0000e+00
0.0000e+00 3.8559e-03 0.0000e+00
0.0000e+00 3.7457e-03 0.0000e+00
0.0000e+00 3.6361e-03 0.0000e+00
0.0000e+00 3.5271e-03 0.0000e+00
0.0000e+00 3.4187e-03 0.0000e+00
0.0000e+00 3.3105e-03 0.0000e+00
0.0000e+00 3.2027e-03 0.0000e+00
0.0000e+00 3.0950e-03 0.0000e+00
0.0000e+00 2.9866e-03 0.0000e+00
0.0000e+00 2.8789e-03 0.0000e+00
0.0000e+00 2.7710e-03 0.0000e+00
0.0000e+00 2.6629e-03 0.0000e+00
0.0000e+00 2.5544e-03 0.0000e+00
0.0000e+00 2.4454e-03 0.0000e+00
0.0000e+00 2.3358e-03 0.0000e+00
0.0000e+00 2.2256e-03 0.0000e+00
0.0000e+00 2.1144e-03 0.0000e+00
0.0000e+00 2.0023e-03 0.0000e+00
0.0000e+00 1.8889e-03 0.0000e+00
0.0000e+00 1.7743e-03 0.0000e+00
0.0000e+00 1.6582e-03 0.0000e+00
0.0000e+00 1.5404e-03 0.0000e+00
0.0000e+00 1.4209e-03 0.0000e+00
0.0000e+00 1.2995e-03 0.0000e+00
0.0000e+00 1.1764e-03 0.0000e+00
0.0000e+00 1.0505e-03 0.0000e+00
0.0000e+00 9.2386e-04 0.0000e+00
0.0000e+00 7.9593e-04 0.0000e+00
0.0000e+00 6.6601e-04 0.0000e+00
0.0000e+00 5.3445e-04 0.0000e+00
0.0000e+00 4.0095e-04 0.0000e+00
0.0000e+00 2.6411e-04 0.0000e+00
0.0000e+00 1.2041e-04 0.0000e+00
1.4920e-04 1.2685e-04 0.0000e+00
1.5175e-04 2.6413e-04 0.0000e+00
1.5362e-04 4.0028e-04 0.0000e+00
1.5495e-04 5.3386e-04 0.0000e+00
1.5598e-04 6.6549e-04 0.0000e+00
1.5692e-04 7.9544e-04 0.0000e+00
1.5789e-04 9.2335e-04 0.0000e+00
1.5892e-04 1.0500e-03 0.0000e+00
1.6003e-04 1.1758e-03 0.0000e+00
1.6121e-04 1.2989e-03 0.0000e+00
1.6243e-04 1.4202e-03 0.0000e+00
1.6363e-04 1.5396e-03 0.0000e+00
1.6480e-04 1.6573e-03 0.0000e+00
1.6589e-04 1.7735e-03 0.0000e+00
1.6688e-04 1.8881e-03 0.0000e+00
1.6777e-04 2.0014e-03 0.0000e+00
1.6856e-04 2.1136e-03 0.0000e+00
1.6925e-04 2.2248e-03 0.0000e+00
1.6984e-04 2.3352e-03 0.0000e+00
1.7033e-04 2.4449e-03 0.0000e+00
1.7074e-04 2.5539e-03 0.0000e+00
1.7106e-04 2.6625e-03 0.0000e+00
1.7130e-04 2.7707e-03 0.0000e+00
1.7146e-04 2.8787e-03 0.0000e+00
1.7154e-04 2.9865e-03 0.0000e+00
1.7154e-04 3.0950e-03 0.0000e+00
1.7146e-04 3.2028e-03 0.0000e+00
1.7131e-04 3.3108e-03 0.0000e+00
1.7107e-04 3.4190e-03 0.0000e+00
1.7074e-04 3.5276e-03 0.0000e+00
1.7034e-04 3.6367e-03 0.0000e+00
1.6985e-04 3.7463e-03 0.0000e+00
1.6926e-04 3.8566e-03 0.0000e+00
1.6857e-04 3.9678e-03 0.0000e+00
1.6779e-04 4.0800e-03 0.0000e+00
1.6690e-04 4.1933e-03 0.0000e+00
1.6590e-04 4.3080e-03 0.0000e+00
1.6482e-04 4.4240e-03 0.0000e+00
1.6365e-04 4.5417e-03 0.0000e+00
1.6245e-04 4.6612e-03 0.0000e+00
1.6124e-04 4.7824e-03 0.0000e+00
1.6006e-04 4.9055e-03 0.0000e+00
1.5895e-04 5.0312e-03 0.0000e+00
1.5792e-04 5.1578e-03 0.0000e+00
1.5697e-04 5.2860e-03 0.0000e+00
1.5608e-04 5.4157e-03 0.0000e+00
1.5521e-04 5.5469e-03 0.0000e+00
1.5426e-04 5.6797e-03 0.0000e+00
1.5311e-04 5.8143e-03 0.0000e+00
1.5158e-04 5.9513e-03 0.0000e+00
3.0300e-04 1.2834e-04 0.0000e+00
3.0485e-04 2.6439e-04 0.0000e+00
3.0730e-04 3.9925e-04 0.0000e+00
3.0972e-04 5.3263e-04 0.0000e+00
3.1180e-04 6.6432e-04 0.0000e+00
3.1374e-04 7.9428e-04 0.0000e+00
3.1570e-04 9.2215e-04 0.0000e+00
3.1779e-04 1.0487e-03 0.0000e+00
3.2004e-04 1.1743e-03 0.0000e+00
3.2240e-04 1.2973e-03 0.0000e+00
3.2482e-04 1.4185e-03 0.0000e+00
3.2721e-04 1.5378e-03 0.0000e+00
3.2951e-04 1.6555e-03 0.0000e+00
3.3165e-04 1.7716e-03 0.0000e+00
3.3361e-04 1.8862e-03 0.0000e+00
3.3535e-04 1.9996e-03 0.0000e+00
3.3690e-04 2.1120e-03 0.0000e+00
3.3824e-04 2.2233e-03 0.0000e+00
3.3940e-04 2.3339e-03 0.0000e+00
3.4038e-04 2.4437e-03 0.0000e+00
3.4118e-04 2.5530e-03 0.0000e+00
3.4182e-04 2.6617e-03 0.0000e+00
3.4230e-04 2.7702e-03 0.0000e+00
3.4261e-04 2.8784e-03 0.0000e+00
3.4277e-04 2.9864e-03 0.0000e+00
3.4278e-04 3.0951e-03 0.0000e+00
3.4262e-04 3.2032e-03 0.0000e+00
3.4231e-04 3.3114e-03 0.0000e+00
3.4183e-04 3.4198e-03 0.0000e+00
3.4120e-04 3.5286e-03 0.0000e+00
3.4040e-04 3.6378e-03 0.0000e+00
3.3942e-04 3.7477e-03 0.0000e+00
3.3826e-04 3.8582e-03 0.0000e+00
3.3692e-04 3.9695e-03 0.0000e+00
3.3538e-04 4.0818e-03 0.0000e+00
3.3364e-04 4.1952e-03 0.0000e+00
3.3169e-04 4.3098e-03 0.0000e+00
3.2954e-04 4.4259e-03 0.0000e+00
3.2725e-04 4.5435e-03 0.0000e+00
3.2486e-04 4.6629e-03 0.0000e+00
3.2245e-04 4.7840e-03 0.0000e+00
3.2009e-04 4.9069e-03 0.0000e+00
3.1785e-04 5.0325e-03 0.0000e+00
3.1578e-04 5.1590e-03 0.0000e+00
3.1386e-04 5.2871e-03 0.0000e+00
3.1205e-04 5.4168e-03 0.0000e+00
3.1024e-04 5.5481e-03 0.0000e+00
3.0831e-04 5.6810e-03 0.0000e+00
3.0605e-04 5.8157e-03 0.0000e+00
3.0336e-04 5.9524e-03 0.0000e+00
4.5603e-04 1.2796e-04 0.0000e+00
4.5883e-04 2.6383e-04 0.0000e+00
4.6164e-04 3.9814e-04 0.0000e+00
4.6469e-04 5.3100e-04 0.0000e+00
4.6774e-04 6.6252e-04 0.0000e+00
4.7070e-04 7.9241e-04 0.0000e+00
4.7371e-04 9.2016e-04 0.0000e+00
4.7690e-04 1.0465e-03 0.0000e+00
4.8030e-04 1.1720e-03 0.0000e+00
4.8384e-04 1.2947e-03 0.0000e+00
4.8744e-04 1.4157e-03 0.0000e+00
4.9097e-04 1.5349e-03 0.0000e+00
4.9435e-04 1.6525e-03 0.0000e+00
4.9748e-04 1.7685e-03 0.0000e+00
5.0034e-04 1.8833e-03 0.0000e+00
5.0289e-04 1.9968e-03 0.0000e+00
5.0514e-04 2.1093e-03 0.0000e+00
5.0711e-04 2.2209e-03 0.0000e+00
5.0881e-04 2.3317e-03 0.0000e+00
5.1026e-04 2.4418e-03 0.0000e+00
5.1145e-04 2.5514e-03 0.0000e+00
5.1239e-04 2.6605e-03 0.0000e+00
5.1309e-04 2.7693e-03 0.0000e+00
5.1356e-04 2.8779e-03 0.0000e+00
5.1380e-04 2.9862e-03 0.0000e+00
5.1380e-04 3.0953e-03 0.0000e+00
5.1357e-04 3.2037e-03 0.0000e+00
5.1310e-04 3.3122e-03 0.0000e+00
5.1240e-04 3.4210e-03 0.0000e+00
5.1147e-04 3.5301e-03 0.0000e+00
5.1028e-04 3.6397e-03 0.0000e+00
5.0884e-04 3.7498e-03 0.0000e+00
5.0714e-04 3.8606e-03 0.0000e+00
5.0518e-04 3.9722e-03 0.0000e+00
5.0293e-04 4.0846e-03 0.0000e+00
5.0038e-04 4.1982e-03 0.0000e+00
4.9753e-04 4.3129e-03 0.0000e+00
4.9440e-04 4.4289e-03 0.0000e+00
4.9103e-04 4.5465e-03 0.0000e+00
4.8750e-04 4.6656e-03 0.0000e+00
4.8391e-04 4.7866e-03 0.0000e+00
4.8038e-04 4.9093e-03 0.0000e+00
4.7699e-04 5.0347e-03 0.0000e+00
4.7384e-04 5.1610e-03 0.0000e+00
4.7091e-04 5.2890e-03 0.0000e+00
4.6811e-04 5.4186e-03 0.0000e+00
4.6534e-04 5.5499e-03 0.0000e+00
4.6241e-04 5.6828e-03 0.0000e+00
4.5922e-04 5.8173e-03 0.0000e+00
4.5582e-04 5.9535e-03 0.0000e+00
6.0904e-04 1.2713e-04 0.0000e+00
6.1266e-04 2.6250e-04 0.0000e+00
6.1625e-04 3.9656e-04 0.0000e+00
6.1989e-04 5.2906e-04 0.0000e+00
6.2372e-04 6.6024e-04 0.0000e+00
6.2768e-04 7.8989e-04 0.0000e+00
6.3177e-04 9.1743e-04 0.0000e+00
6.3609e-04 1.0435e-03 0.0000e+00
6.4067e-04 1.1687e-03 0.0000e+00
6.4537e-04 1.2911e-03 0.0000e+00
6.5010e-04 1.4118e-03 0.0000e+00
6.5471e-04 1.5309e-03 0.0000e+00
6.5907e-04 1.6483e-03 0.0000e+00
6.6311e-04 1.7644e-03 0.0000e+00
6.6678e-04 1.8793e-03 0.0000e+00
6.7006e-04 1.9930e-03 0.0000e+00
6.7297e-04 2.1058e-03 0.0000e+00
6.7551e-04 2.2177e-03 0.0000e+00
6.7772e-04 2.3289e-03 0.0000e+00
6.7960e-04 2.4394e-03 0.0000e+00
6.8116e-04 2.5494e-03 0.0000e+00
6.8240e-04 2.6590e-03 0.0000e+00
6.8332e-04 2.7682e-03 0.0000e+00
6.8393e-04 2.8772e-03 0.0000e+00
6.8424e-04 2.9860e-03 0.0000e+00
6.8425e-04 3.0955e-03 0.0000e+00
6.8394e-04 3.2044e-03 0.0000e+00
6.8334e-04 3.3134e-03 0.0000e+00
6.8242e-04 3.4226e-03 0.0000e+00
6.8119e-04 3.5321e-03 0.0000e+00
6.7963e-04 3.6421e-03 0.0000e+00
6.7776e-04 3.7526e-03 0.0000e+00
6.7556e-04 3.8638e-03 0.0000e+00
6.7302e-04 3.9757e-03 0.0000e+00
6.7012e-04 4.0884e-03 0.0000e+00
6.6684e-04 4.2022e-03 0.0000e+00
6.6317e-04 4.3170e-03 0.0000e+00
6.5914e-04 4.4330e-03 0.0000e+00
6.5478e-04 4.5505e-03 0.0000e+00
6.5019e-04 4.6695e-03 0.0000e+00
6.4547e-04 4.7902e-03 0.0000e+00
6.4078e-04 4.9126e-03 0.0000e+00
6.3622e-04 5.0377e-03 0.0000e+00
6.3195e-04 5.1637e-03 0.0000e+00
6.2794e-04 5.2915e-03 0.0000e+00
6.2413e-04 5.4210e-03 0.0000e+00
6.2038e-04 5.5521e-03 0.0000e+00
6.1657e-04 5.6848e-03 0.0000e+00
6.1268e-04 5.8190e-03 0.0000e+00
6.0883e-04 5.9544e-03 0.0000e+00
7.6270e-04 1.2628e-04 0.0000e+00
7.6686e-04 2.6100e-04 0.0000e+00
7.7114e-04 3.9457e-04 0.0000e+00
7.7552e-04 5.2672e-04 0.0000e+00
7.8012e-04 6.5751e-04 0.0000e+00
7.8501e-04 7.8678e-04 0.0000e+00
7.9019e-04 9.1394e-04 0.0000e+00
7.9567e-04 1.0397e-03 0.0000e+00
8.0143e-04 1.1644e-03 0.0000e+00
8.0726e-04 1.2865e-03 0.0000e+00
8.1305e-04 1.4069e-03 0.0000e+00
8.1862e-04 1.5258e-03 0.0000e+00
8.2386e-04 1.6432e-03 0.0000e+00
8.2870e-04 1.7593e-03 0.0000e+00
8.3309e-04 1.8744e-03 0.0000e+00
8.3702e-04 1.9884e-03 0.0000e+00
8.4052e-04 2.1015e-03 0.0000e+00
8.4359e-04 2.2138e-03 0.0000e+00
8.4626e-04 2.3254e-03 0.0000e+00
8.4854e-04 2.4364e-03 0.0000e+00
8.5044e-04 2.5469e-03 0.0000e+00
8.5196e-04 2.6570e-03 0.0000e+00
8.5309e-04 2.7668e-03 0.0000e+00
8.5385e-04 2.8763e-03 0.0000e+00
8.5423e-04 2.9857e-03 0.0000e+00
8.5423e-04 3.0958e-03 0.0000e+00
8.5386e-04 3.2052e-03 0.0000e+00
8.5312e-04 3.3148e-03 0.0000e+00
8.5199e-04 3.4245e-03 0.0000e+00
8.5048e-04 3.5346e-03 0.0000e+00
8.4858e-04 3.6451e-03 0.0000e+00
8.4631e-04 3.7561e-03 0.0000e+00
8.4365e-04 3.8677e-03 0.0000e+00
8.4058e-04 3.9800e-03 0.0000e+00
8.3709e-04 4.0931e-03 0.0000e+00
8.3316e-04 4.2071e-03 0.0000e+00
8.2878e-04 4.3221e-03 0.0000e+00
8.2395e-04 4.4382e-03 0.0000e+00
8.1871e-04 4.5556e-03 0.0000e+00
8.1315e-04 4.6744e-03 0.0000e+00
8.0738e-04 4.7948e-03 0.0000e+00
8.0156e-04 4.9169e-03 0.0000e+00
7.9584e-04 5.0416e-03 0.0000e+00
7.9041e-04 5.1672e-03 0.0000e+00
7.8528e-04 5.2947e-03 0.0000e+00
7.8043e-04 5.4239e-03 0.0000e+00
7.7577e-04 5.5547e-03 0.0000e+00
7.7123e-04 5.6870e-03 0.0000e+00
7.6679e-04 5.8205e-03 0.0000e+00
7.6254e-04 5.9553e-03 0.0000e+00
9.1695e-04 1.2546e-04 0.0000e+00
9.2155e-04 2.5946e-04 0.0000e+00
9.2640e-04 3.9243e-04 0.0000e+00
9.3150e-04 5.2405e-04 0.0000e+00
9.3692e-04 6.5436e-04 0.0000e+00
9.4276e-04 7.8310e-04 0.0000e+00
9.4902e-04 9.0973e-04 0.0000e+00
9.5565e-04 1.0349e-03 0.0000e+00
9.6254e-04 1.1592e-03 0.0000e+00
9.6942e-04 1.2809e-03 0.0000e+00
9.7615e-04 1.4010e-03 0.0000e+00
9.8256e-04 1.5197e-03 0.0000e+00
9.8855e-04 1.6371e-03 0.0000e+00
9.9406e-04 1.7534e-03 0.0000e+00
9.9907e-04 1.8686e-03 0.0000e+00
1.0036e-03 1.9830e-03 0.0000e+00
1.0076e-03 2.0965e-03 0.0000e+00
1.0111e-03 2.2093e-03 0.0000e+00
1.0142e-03 2.3214e-03 0.0000e+00
1.0169e-03 2.4330e-03 0.0000e+00
1.0191e-03 2.5441e-03 0.0000e+00
1.0209e-03 2.6548e-03 0.0000e+00
1.0222e-03 2.7652e-03 0.0000e+00
1.0231e-03 2.8753e-03 0.0000e+00
1.0235e-03 2.9854e-03 0.0000e+00
1.0235e-03 3.0961e-03 0.0000e+00
1.0231e-03 3.2062e-03 0.0000e+00
1.0222e-03 3.3164e-03 0.0000e+00
1.0209e-03 3.4268e-03 0.0000e+00
1.0191e-03 3.5375e-03 0.0000e+00
1.0169e-03 3.6485e-03 0.0000e+00
1.0143e-03 3.7601e-03 0.0000e+00
1.0112e-03 3.8722e-03 0.0000e+00
1.0077e-03 3.9850e-03 0.0000e+00
1.0037e-03 4.0985e-03 0.0000e+00
9.9916e-04 4.2128e-03 0.0000e+00
9.9416e-04 4.3280e-03 0.0000e+00
9.8865e-04 4.4443e-03 0.0000e+00
9.8267e-04 4.5617e-03 0.0000e+00
9.7627e-04 4.6804e-03 0.0000e+00
9.6956e-04 4.8005e-03 0.0000e+00
9.6270e-04 4.9221e-03 0.0000e+00
9.5583e-04 5.0463e-03 0.0000e+00
9.4923e-04 5.1715e-03 0.0000e+00
9.4298e-04 5.2985e-03 0.0000e+00
9.3711e-04 5.4272e-03 0.0000e+00
9.3160e-04 5.5575e-03 0.0000e+00
9.2640e-04 5.6891e-03 0.0000e+00
9.2147e-04 5.8221e-03 0.0000e+00
9.1683e-04 5.9561e-03 0.0000e+00
1.0713e-03 1.2465e-04 0.0000e+00
1.0763e-03 2.5792e-04 0.0000e+00
1.0817e-03 3.9020e-04 0.0000e+00
1.0874e-03 5.2117e-04 0.0000e+00
1.0937e-03 6.5081e-04 0.0000e+00
1.1005e-03 7.7888e-04 0.0000e+00
1.1079e-03 9.0481e-04 0.0000e+00
1.1156e-03 1.0293e-03 0.0000e+00
1.1235e-03 1.1530e-03 0.0000e+00
1.1313e-03 1.2742e-03 0.0000e+00
1.1388e-03 1.3941e-03 0.0000e+00
1.1459e-03 1.5127e-03 0.0000e+00
1.1525e-03 1.6302e-03 0.0000e+00
1.1586e-03 1.7467e-03 0.0000e+00
1.1641e-03 1.8622e-03 0.0000e+00
1.1691e-03 1.9770e-03 0.0000e+00
1.1736e-03 2.0910e-03 0.0000e+00
1.1775e-03 2.2043e-03 0.0000e+00
1.1810e-03 2.3170e-03 0.0000e+00
1.1840e-03 2.4292e-03 0.0000e+00
1.1865e-03 2.5409e-03 0.0000e+00
1.1885e-03 2.6523e-03 0.0000e+00
1.1900e-03 2.7634e-03 0.0000e+00
1.1910e-03 2.8743e-03 0.0000e+00
1.1915e-03 2.9850e-03 0.0000e+00
1.1915e-03 3.0965e-03 0.0000e+00
1.1910e-03 3.2073e-03 0.0000e+00
1.1900e-03 3.3181e-03 0.0000e+00
1.1885e-03 3.4292e-03 0.0000e+00
1.1865e-03 3.5406e-03 0.0000e+00
1.1841e-03 3.6523e-03 0.0000e+00
1.1811e-03 3.7645e-03 0.0000e+00
1.1776e-03 3.8772e-03 0.0000e+00
1.1737e-03 3.9905e-03 0.0000e+00
1.1692e-03 4.1045e-03 0.0000e+00
1.1642e-03 4.2192e-03 0.0000e+00
1.1587e-03 4.3347e-03 0.0000e+00
1.1526e-03 4.4512e-03 0.0000e+00
1.1460e-03 4.5687e-03 0.0000e+00
1.1389e-03 4.6873e-03 0.0000e+00
1.1314e-03 4.8071e-03 0.0000e+00
1.1237e-03 4.9283e-03 0.0000e+00
1.1158e-03 5.0519e-03 0.0000e+00
1.1080e-03 5.1765e-03 0.0000e+00
1.1007e-03 5.3028e-03 0.0000e+00
1.0938e-03 5.4308e-03 0.0000e+00
1.0875e-03 5.5604e-03 0.0000e+00
1.0816e-03 5.6914e-03 0.0000e+00
1.0762e-03 5.8236e-03 0.0000e+00
1.0712e-03 5.9568e-03 0.0000e+00
1.2266e-03 1.2385e-04 0.0000e+00
1.2320e-03 2.5635e-04 0.0000e+00
1.2380e-03 3.8788e-04 0.0000e+00
1.2445e-03 5.1805e-04 0.0000e+00
1.2516e-03 6.4688e-04 0.0000e+00
1.2595e-03 7.7407e-04 0.0000e+00
1.2678e-03 8.9913e-04 0.0000e+00
1.2766e-03 1.0229e-03 0.0000e+00
1.2854e-03 1.1459e-03 0.0000e+00
1.2939e-03 1.2667e-03 0.0000e+00
1.3020e-03 1.3864e-03 0.0000e+00
1.3096e-03 1.5049e-03 0.0000e+00
1.3166e-03 1.6226e-03 0.0000e+00
1.3232e-03 1.7393e-03 0.0000e+00
1.3291e-03 1.8553e-03 0.0000e+00
1.3345e-03 1.9705e-03 0.0000e+00
1.3394e-03 2.0850e-03 0.0000e+00
1.3438e-03 2.1989e-03 0.0000e+00
1.3476e-03 2.3122e-03 0.0000e+00
1.3509e-03 2.4251e-03 0.0000e+00
1.3536e-03 2.5375e-03 0.0000e+00
1.3558e-03 2.6496e-03 0.0000e+00
1.3575e-03 2.7614e-03 0.0000e+00
1.3586e-03 2.8731e-03 0.0000e+00
1.3592e-03 2.9846e-03 0.0000e+00
1.3592e-03 3.0969e-03 0.0000e+00
1.3586e-03 3.2084e-03 0.0000e+00
1.3575e-03 3.3201e-03 0.0000e+00
1.3559e-03 3.4319e-03 0.0000e+00
1.3537e-03 3.5440e-03 0.0000e+00
1.3509e-03 3.6564e-03 0.0000e+00
1.3477e-03 3.7693e-03 0.0000e+00
1.3439e-03 3.8826e-03 0.0000e+00
1.3395e-03 3.9965e-03 0.0000e+00
1.3347e-03 4.1110e-03 0.0000e+00
1.3292e-03 4.2261e-03 0.0000e+00
1.3233e-03 4.3421e-03 0.0000e+00
1.3168e-03 4.4588e-03 0.0000e+00
1.3097e-03 4.5764e-03 0.0000e+00
1.3021e-03 4.6950e-03 0.0000e+00
1.2940e-03 4.8146e-03 0.0000e+00
1.2855e-03 4.9354e-03 0.0000e+00
1.2767e-03 5.0585e-03 0.0000e+00
1.2680e-03 5.1822e-03 0.0000e+00
1.2595e-03 5.3076e-03 0.0000e+00
1.2517e-03 5.4347e-03 0.0000e+00
1.2444e-03 5.5635e-03 0.0000e+00
1.2379e-03 5.6937e-03 0.0000e+00
1.2320e-03 5.8251e-03 0.0000e+00
1.2265e-03 5.9576e-03 0.0000e+00
1.3836e-03 1.2303e-04 0.0000e+00
1.3895e-03 2.5472e-04 0.0000e+00
1.3960e-03 3.8538e-04 0.0000e+00
1.4033e-03 5.1464e-04 0.0000e+00
1.4115e-03 6.4243e-04 0.0000e+00
1.4204e-03 7.6856e-04 0.0000e+00
1.4297e-03 8.9259e-04 0.0000e+00
1.4393e-03 1.0155e-03 0.0000e+00
1.4487e-03 1.1379e-03 0.0000e+00
1.4577e-03 1.2583e-03 0.0000e+00
1.4662e-03 1.3779e-03 0.0000e+00
1.4741e-03 1.4965e-03 0.0000e+00
1.4816e-03 1.6144e-03 0.0000e+00
1.4884e-03 1.7315e-03 0.0000e+00
1.4948e-03 1.8479e-03 0.0000e+00
1.5006e-03 1.9636e-03 0.0000e+00
1.5058e-03 2.0787e-03 0.0000e+00
1.5105e-03 2.1932e-03 0.0000e+00
1.5146e-03 2.3072e-03 0.0000e+00
1.5181e-03 2.4207e-03 0.0000e+00
1.5211e-03 2.5339e-03 0.0000e+00
1.5235e-03 2.6468e-03 0.0000e+00
1.5253e-03 2.7594e-03 0.0000e+00
1.5265e-03 2.8719e-03 0.0000e+00
1.5271e-03 2.9842e-03 0.0000e+00
1.5271e-03 3.0973e-03 0.0000e+00
1.5265e-03 3.2096e-03 0.0000e+00
1.5253e-03 3.3221e-03 0.0000e+00
1.5235e-03 3.4347e-03 0.0000e+00
1.5211e-03 3.5476e-03 0.0000e+00
1.5182e-03 3.6608e-03 0.0000e+00
1.5147e-03 3.7743e-03 0.0000e+00
1.5106e-03 3.8883e-03 0.0000e+00
1.5059e-03 4.0028e-03 0.0000e+00
1.5007e-03 4.1179e-03 0.0000e+00
1.4949e-03 4.2336e-03 0.0000e+00
1.4886e-03 4.3499e-03 0.0000e+00
1.4817e-03 4.4670e-03 0.0000e+00
1.4743e-03 4.5849e-03 0.0000e+00
1.4663e-03 4.7035e-03 0.0000e+00
1.4578e-03 4.8230e-03 0.0000e+00
1.4488e-03 4.9435e-03 0.0000e+00
1.4394e-03 5.0659e-03 0.0000e+00
1.4299e-03 5.1888e-03 0.0000e+00
1.4204e-03 5.3131e-03 0.0000e+00
1.4115e-03 5.4392e-03 0.0000e+00
1.4033e-03 5.5669e-03 0.0000e+00
1.3960e-03 5.6962e-03 0.0000e+00
1.3894e-03 5.8268e-03 0.0000e+00
1.3835e-03 5.9585e-03 0.0000e+00
1.5402e-03 1.2218e-04 0.0000e+00
1.5466e-03 2.5299e-04 0.0000e+00
1.5539e-03 3.8269e-04 0.0000e+00
1.5622e-03 5.1083e-04 0.0000e+00
1.5714e-03 6.3741e-04 0.0000e+00
1.5813e-03 7.6227e-04 0.0000e+00
1.5914e-03 8.8521e-04 0.0000e+00
1.6015e-03 1.0072e-03 0.0000e+00
1.6112e-03 1.1291e-03 0.0000e+00
1.6204e-03 1.2494e-03 0.0000e+00
1.6291e-03 1.3689e-03 0.0000e+00
1.6373e-03 1.4877e-03 0.0000e+00
1.6450e-03 1.6059e-03 0.0000e+00
1.6522e-03 1.7233e-03 0.0000e+00
1.6588e-03 1.8402e-03 0.0000e+00
1.6649e-03 1.9564e-03 0.0000e+00
1.6704e-03 2.0721e-03 0.0000e+00
1.6753e-03 2.1873e-03 0.0000e+00