# vtk DataFile Version 3.0
VTK Example
ASCII
DATASET UNSTRUCTURED_GRID
POINTS 915 float 
0.000147256 0.00014594 0.0
0.000294058 0.000145697 0.0
0.000441433 0.000145609 0.0
0.000588679 0.000145658 0.0
0.000735893 0.000145638 0.0
0.000883098 0.000145648 0.0
0.0010303 0.000145635 0.0
0.0011775 0.00014564 0.0
0.00132469 0.000145627 0.0
0.00147191 0.000145613 0.0
0.0016191 0.000145631 0.0
0.0017663 0.000145596 0.0
0.00191353 0.000145591 0.0
0.00206074 0.000145649 0.0
0.00220878 0.000146484 0.0
0.00235586 0.000148048 0.0
0.00251602 0.000158124 0.0
0.00263744 0.000123031 0.0
0.00284763 0.000106326 0.0
0.00014742 0.000291486 0.0
0.000294304 0.00029187 0.0
0.00044183 0.000292018 0.0
0.000589184 0.000292007 0.0
0.00073655 0.000292033 0.0
0.000883896 0.000292015 0.0
0.00103125 0.000292027 0.0
0.00117859 0.000292021 0.0
0.00132594 0.000292041 0.0
0.00147326 0.00029202 0.0
0.00162065 0.000292011 0.0
0.00176801 0.000292069 0.0
0.00191525 0.000292071 0.0
0.00206254 0.00029215 0.0
0.00220975 0.000291109 0.0
0.00236367 0.000289391 0.0
0.00251347 0.000279988 0.0
0.00270376 0.00025018 0.0
0.00289219 0.000208767 0.0
0.000147338 0.000438273 0.0
0.000294861 0.000438224 0.0
0.000442238 0.000438284 0.0
0.00058976 0.000438322 0.0
0.000737236 0.000438302 0.0
0.000884739 0.000438306 0.0
0.00103223 0.000438289 0.0
0.00117974 0.000438302 0.0
0.00132724 0.000438304 0.0
0.00147474 0.000438338 0.0
0.00162215 0.000438296 0.0
0.00176959 0.000438404 0.0
0.00191764 0.000437848 0.0
0.00206915 0.000434819 0.0
0.00222982 0.000427603 0.0
0.00239998 0.000414358 0.0
0.00259868 0.000388302 0.0
0.00271933 0.000369229 0.0
0.00289758 0.000342707 0.0
0.00304678 0.000328639 0.0
0.000147567 0.000584386 0.0
0.000295104 0.000584427 0.0
0.000442739 0.000584415 0.0
0.000590325 0.000584409 0.0
0.000737966 0.000584401 0.0
0.000885593 0.000584363 0.0
0.00103324 0.000584359 0.0
0.0011809 0.000584338 0.0
0.00132854 0.000584372 0.0
0.00147617 0.0005844 0.0
0.00162407 0.000584159 0.0
0.00177411 0.00058219 0.0
0.00193076 0.000576055 0.0
0.00209549 0.000566037 0.0
0.00226379 0.000551836 0.0
0.00243394 0.000531606 0.0
0.00258092 0.000513236 0.0
0.00275178 0.000496991 0.0
0.00290714 0.000479952 0.0
0.0030554 0.000462946 0.0
0.000147686 0.00073035 0.0
0.000295415 0.000730304 0.0
0.000443133 0.000730274 0.0
0.000590926 0.000730234 0.0
0.000738713 0.000730189 0.0
0.00088654 0.000730142 0.0
0.0010344 0.000730072 0.0
0.00118229 0.000730067 0.0
0.00133035 0.000729882 0.0
0.00147959 0.000728896 0.0
0.00163342 0.000724453 0.0
0.00179558 0.000715336 0.0
0.00196289 0.000702903 0.0
0.00213028 0.000689091 0.0
0.00229638 0.000672731 0.0
0.00245713 0.000656238 0.0
0.00262694 0.000627322 0.0
0.00274978 0.00064671 0.0
0.00291521 0.0006203 0.0
0.00308252 0.000603769 0.0
0.000147859 0.000875982 0.0
0.000295726 0.000875887 0.0
0.000443692 0.000875788 0.0
0.000591692 0.000875668 0.0
0.000739801 0.000875556 0.0
0.000887947 0.000875454 0.0
0.00103621 0.000875244 0.0
0.0011852 0.00087453 0.0
0.00133712 0.000871677 0.0
0.00149651 0.000863956 0.0
0.00166291 0.000853143 0.0
0.00182938 0.000839537 0.0
0.00199375 0.00082666 0.0
0.00215601 0.000813436 0.0
0.00231502 0.000801093 0.0
0.00247397 0.000786069 0.0
0.00262782 0.000773129 0.0
0.00278922 0.000752644 0.0
0.00290954 0.000773402 0.0
0.00306886 0.000750488 0.0
0.00319467 0.000719118 0.0
0.000148141 0.00102118 0.0
0.000296306 0.00102103 0.0
0.000444553 0.00102077 0.0
0.000592962 0.00102054 0.0
0.000741491 0.00102022 0.0
0.000890546 0.00101965 0.0
0.00104142 0.00101772 0.0
0.00119782 0.00101179 0.0
0.0013623 0.00100181 0.0
0.00152891 0.000989219 0.0
0.00169335 0.000976363 0.0
0.00185571 0.000964582 0.0
0.00201568 0.00095271 0.0
0.00217316 0.000942035 0.0
0.00232869 0.000931606 0.0
0.00248185 0.000922079 0.0
0.00263708 0.000909201 0.0
0.00278801 0.000900103 0.0
0.00294706 0.000881292 0.0
0.00307756 0.000898302 0.0
0.00319124 0.000857655 0.0
0.000148661 0.00116564 0.0
0.000297273 0.00116542 0.0
0.000446006 0.00116498 0.0
0.000595201 0.0011642 0.0
0.000745721 0.00116272 0.0
0.000900038 0.00115835 0.0
0.00106151 0.00114997 0.0
0.00122773 0.00113792 0.0
0.00139253 0.00112497 0.0
0.00155532 0.00111303 0.0
0.00171594 0.00110194 0.0
0.0018745 0.00109139 0.0
0.00203107 0.00108184 0.0
0.00218592 0.00107266 0.0
0.00233896 0.00106437 0.0
0.0024908 0.00105638 0.0
0.00264124 0.00104872 0.0
0.00279341 0.00103839 0.0
0.00294277 0.00103179 0.0
0.00308835 0.00102434 0.0
0.00324047 0.000999623 0.0
0.00335155 0.00102936 0.0
0.000149499 0.00130883 0.0
0.000299109 0.00130832 0.0
0.000449643 0.00130693 0.0
0.00060266 0.00130357 0.0
0.000761235 0.00129656 0.0
0.000925505 0.00128613 0.0
0.00109077 0.00127295 0.0
0.00125406 0.00126057 0.0
0.00141557 0.001249 0.0
0.00157486 0.00123859 0.0
0.00173252 0.00122901 0.0
0.0018884 0.00122036 0.0
0.00204281 0.00121226 0.0
0.00219573 0.00120493 0.0
0.00234755 0.00119796 0.0
0.0024982 0.00119142 0.0
0.00264804 0.00118498 0.0
0.00279685 0.00117862 0.0
0.00294578 0.00117141 0.0
0.00309425 0.00116426 0.0
0.00323976 0.00115362 0.0
0.00338604 0.0011399 0.0
0.000151864 0.00144888 0.0
0.000305016 0.00144656 0.0
0.00046161 0.00144158 0.0
0.000622983 0.00143264 0.0
0.000787067 0.00142041 0.0
0.000951147 0.00140721 0.0
0.00111363 0.00139517 0.0
0.00127417 0.00138397 0.0
0.0014327 0.00137423 0.0
0.00158971 0.00136534 0.0
0.00174506 0.0013575 0.0
0.00189916 0.00135032 0.0
0.00205194 0.00134386 0.0
0.00220374 0.00133783 0.0
0.00235451 0.00133222 0.0
0.00250453 0.00132681 0.0
0.00265367 0.00132156 0.0
0.00280213 0.00131636 0.0
0.00294977 0.00131112 0.0
0.00309679 0.00130595 0.0
0.00324823 0.00129972 0.0
0.00339666 0.00129642 0.0
0.000157641 0.00158099 0.0
0.000317519 0.00157535 0.0
0.000480569 0.00156537 0.0
0.000645137 0.00155303 0.0
0.000809088 0.00153994 0.0
0.000971034 0.00152805 0.0
0.00113109 0.00151742 0.0
0.00128926 0.00150833 0.0
0.00144584 0.00150016 0.0
0.00160088 0.00149313 0.0
0.00175475 0.00148676 0.0
0.00190742 0.00148116 0.0
0.0020592 0.001476 0.0
0.00221006 0.00147128 0.0
0.00236021 0.00146681 0.0
0.00250959 0.00146253 0.0
0.00265835 0.00145836 0.0
0.00280639 0.00145421 0.0
0.00295379 0.0014501 0.0
0.00310219 0.00144681 0.0
0.00325245 0.00144529 0.0
0.00342412 0.00145301 0.0
0.000165594 0.00170179 0.0
0.000332079 0.00169328 0.0
0.000498345 0.00168185 0.0
0.000663165 0.00166961 0.0
0.000825661 0.00165852 0.0
0.000985916 0.00164864 0.0
0.00114405 0.00164032 0.0
0.00130053 0.00163306 0.0
0.0014555 0.00162692 0.0
0.00160927 0.00162145 0.0
0.00176192 0.00161672 0.0
0.00191372 0.00161244 0.0
0.00206466 0.00160861 0.0
0.00221496 0.00160503 0.0
0.00236455 0.00160168 0.0
0.00251356 0.00159846 0.0
0.00266193 0.00159531 0.0
0.00280973 0.00159222 0.0
0.00295688 0.00158912 0.0
0.00310277 0.00158609 0.0
0.00325193 0.00158299 0.0
0.00339143 0.0015811 0.0
0.000172494 0.00181193 0.0
0.000343459 0.00180411 0.0
0.000511341 0.00179424 0.0
0.000675806 0.00178486 0.0
0.000837295 0.00177645 0.0
0.000996198 0.00176944 0.0
0.0011531 0.0017634 0.0
0.00130831 0.0017584 0.0
0.00146224 0.00175402 0.0
0.00161504 0.00175033 0.0
0.00176697 0.00174701 0.0
0.00191808 0.00174412 0.0
0.00206855 0.00174145 0.0
0.00221837 0.00173903 0.0
0.00236764 0.00173673 0.0
0.00251633 0.00173454 0.0
0.0026645 0.00173241 0.0
0.00281207 0.0017303 0.0
0.00295909 0.00172824 0.0
0.00310658 0.00172528 0.0
0.00325379 0.00172152 0.0
0.00341217 0.00170789 0.0
0.00351786 0.00173912 0.0
0.00017653 0.00191575 0.0
0.000350045 0.00191064 0.0
0.000518854 0.00190477 0.0
0.000683294 0.00189908 0.0
0.000844148 0.00189431 0.0
0.00100232 0.0018902 0.0
0.0011584 0.00188686 0.0
0.00131292 0.00188394 0.0
0.00146617 0.00188155 0.0
0.00161846 0.00187942 0.0
0.0017699 0.00187762 0.0
0.00192067 0.00187597 0.0
0.0020708 0.00187452 0.0
0.00222039 0.00187317 0.0
0.00236943 0.00187192 0.0
0.00251797 0.00187072 0.0
0.00266597 0.00186957 0.0
0.00281345 0.00186847 0.0
0.00296035 0.00186736 0.0
0.0031067 0.00186633 0.0
0.00325446 0.00186263 0.0
0.00339978 0.00186151 0.0
0.00353441 0.00185151 0.0
0.000177884 0.0020165 0.0
0.00035219 0.00201547 0.0
0.000521411 0.00201415 0.0
0.000685832 0.00201304 0.0
0.000846508 0.00201197 0.0
0.00100437 0.00201115 0.0
0.00116018 0.00201036 0.0
0.00131442 0.00200976 0.0
0.00146747 0.00200917 0.0
0.00161953 0.00200874 0.0
0.00177083 0.0020083 0.0
0.00192144 0.00200798 0.0
0.00207148 0.00200766 0.0
0.00222096 0.0020074 0.0
0.00236995 0.00200716 0.0
0.00251842 0.00200696 0.0
0.00266639 0.00200679 0.0
0.00281383 0.00200664 0.0
0.00296072 0.00200655 0.0
0.00310705 0.00200644 0.0
0.00325452 0.00200908 0.0
0.00339853 0.00200923 0.0
0.00353525 0.00201939 0.0
0.000176923 0.00211725 0.0
0.000350547 0.00212009 0.0
0.000519367 0.00212367 0.0
0.0006837 0.00212694 0.0
0.000844428 0.0021298 0.0
0.00100246 0.00213206 0.0
0.00115845 0.002134 0.0
0.00131289 0.00213553 0.0
0.00146609 0.0021369 0.0
0.00161832 0.00213802 0.0
0.00176973 0.00213907 0.0
0.00192045 0.00213997 0.0
0.00207056 0.00214084 0.0
0.00222013 0.00214163 0.0
0.00236918 0.00214242 0.0
0.00251771 0.00214319 0.0
0.00266574 0.00214399 0.0
0.00281322 0.00214482 0.0
0.00296018 0.00214568 0.0
0.00310743 0.00214749 0.0
0.00325264 0.00215015 0.0
0.00340804 0.00216368 0.0
0.00351161 0.0021338 0.0
0.000173673 0.00222024 0.0
0.000345026 0.00222652 0.0
0.000512761 0.0022341 0.0
0.000676892 0.00224146 0.0
0.000837971 0.00224776 0.0
0.000996583 0.0022531 0.0
0.00115324 0.0022575 0.0
0.0013083 0.00226129 0.0
0.00146207 0.00226446 0.0
0.00161478 0.00226728 0.0
0.0017666 0.00226971 0.0
0.00191765 0.00227194 0.0
0.00206805 0.00227393 0.0
0.00221787 0.00227583 0.0
0.00236712 0.00227761 0.0
0.00251585 0.00227939 0.0
0.00266401 0.00228115 0.0
0.00281165 0.00228296 0.0
0.00295868 0.00228481 0.0
0.00310404 0.00228668 0.0
0.00325232 0.00228865 0.0
0.00338557 0.0022902 0.0
0.00353221 0.00228817 0.0
0.000167834 0.00232866 0.0
0.000335278 0.0023365 0.0
0.00050132 0.00234672 0.0
0.000665334 0.00235695 0.0
0.000827078 0.00236622 0.0
0.000986703 0.00237413 0.0
0.00114445 0.00238096 0.0
0.00130058 0.00238677 0.0
0.00145533 0.00239186 0.0
0.00160887 0.00239626 0.0
[...]
POINT_DATA 915
VECTORS Position float
1.4726e-04 1.4594e-04 0.0000e+00
2.9406e-04 1.4570e-04 0.0000e+00
4.4143e-04 1.4561e-04 0.0000e+00
5.8868e-04 1.4566e-04 0.0000e+00
7.3589e-04 1.4564e-04 0.0000e+00
8.8310e-04 1.4565e-04 0.0000e+00
1.0303e-03 1.4563e-04 0.0000e+00
1.1775e-03 1.4564e-04 0.0000e+00
1.3247e-03 1.4563e-04 0.0000e+00
1.4719e-03 1.4561e-04 0.0000e+00
1.6191e-03 1.4563e-04 0.0000e+00
1.7663e-03 1.4560e-04 0.0000e+00
1.9135e-03 1.4559e-04 0.0000e+00
2.0607e-03 1.4565e-04 0.0000e+00
2.2088e-03 1.4648e-04 0.0000e+00
2.3559e-03 1.4805e-04 0.0000e+00
2.5160e-03 1.5812e-04 0.0000e+00
2.6374e-03 1.2303e-04 0.0000e+00
2.8476e-03 1.0633e-04 0.0000e+00
1.4742e-04 2.9149e-04 0.0000e+00
2.9430e-04 2.9187e-04 0.0000e+00
4.4183e-04 2.9202e-04 0.0000e+00
5.8918e-04 2.9201e-04 0.0000e+00
7.3655e-04 2.9203e-04 0.0000e+00
8.8390e-04 2.9201e-04 0.0000e+00
1.0312e-03 2.9203e-04 0.0000e+00
1.1786e-03 2.9202e-04 0.0000e+00
1.3259e-03 2.9204e-04 0.0000e+00
1.4733e-03 2.9202e-04 0.0000e+00
1.6207e-03 2.9201e-04 0.0000e+00
1.7680e-03 2.9207e-04 0.0000e+00
1.9152e-03 2.9207e-04 0.0000e+00
2.0625e-03 2.9215e-04 0.0000e+00
2.2097e-03 2.9111e-04 0.0000e+00
2.3637e-03 2.8939e-04 0.0000e+00
2.5135e-03 2.7999e-04 0.0000e+00
2.7038e-03 2.5018e-04 0.0000e+00
2.8922e-03 2.0877e-04 0.0000e+00
1.4734e-04 4.3827e-04 0.0000e+00
2.9486e-04 4.3822e-04 0.0000e+00
4.4224e-04 4.3828e-04 0.0000e+00
5.8976e-04 4.3832e-04 0.0000e+00
7.3724e-04 4.3830e-04 0.0000e+00
8.8474e-04 4.3831e-04 0.0000e+00
1.0322e-03 4.3829e-04 0.0000e+00
1.1797e-03 4.3830e-04 0.0000e+00
1.3272e-03 4.3830e-04 0.0000e+00
1.4747e-03 4.3834e-04 0.0000e+00
1.6221e-03 4.3830e-04 0.0000e+00
1.7696e-03 4.3840e-04 0.0000e+00
1.9176e-03 4.3785e-04 0.0000e+00
2.0692e-03 4.3482e-04 0.0000e+00
2.2298e-03 4.2760e-04 0.0000e+00
2.4000e-03 4.1436e-04 0.0000e+00
2.5987e-03 3.8830e-04 0.0000e+00
2.7193e-03 3.6923e-04 0.0000e+00
2.8976e-03 3.4271e-04 0.0000e+00
3.0468e-03 3.2864e-04 0.0000e+00
1.4757e-04 5.8439e-04 0.0000e+00
2.9510e-04 5.8443e-04 0.0000e+00
4.4274e-04 5.8442e-04 0.0000e+00
5.9032e-04 5.8441e-04 0.0000e+00
7.3797e-04 5.8440e-04 0.0000e+00
8.8559e-04 5.8436e-04 0.0000e+00
1.0332e-03 5.8436e-04 0.0000e+00
1.1809e-03 5.8434e-04 0.0000e+00
1.3285e-03 5.8437e-04 0.0000e+00
1.4762e-03 5.8440e-04 0.0000e+00
1.6241e-03 5.8416e-04 0.0000e+00
1.7741e-03 5.8219e-04 0.0000e+00
1.9308e-03 5.7606e-04 0.0000e+00
2.0955e-03 5.6604e-04 0.0000e+00
2.2638e-03 5.5184e-04 0.0000e+00
2.4339e-03 5.3161e-04 0.0000e+00
2.5809e-03 5.1324e-04 0.0000e+00
2.7518e-03 4.9699e-04 0.0000e+00
2.9071e-03 4.7995e-04 0.0000e+00
3.0554e-03 4.6295e-04 0.0000e+00
1.4769e-04 7.3035e-04 0.0000e+00
2.9542e-04 7.3030e-04 0.0000e+00
4.4313e-04 7.3027e-04 0.0000e+00
5.9093e-04 7.3023e-04 0.0000e+00
7.3871e-04 7.3019e-04 0.0000e+00
8.8654e-04 7.3014e-04 0.0000e+00
1.0344e-03 7.3007e-04 0.0000e+00
1.1823e-03 7.3007e-04 0.0000e+00
1.3304e-03 7.2988e-04 0.0000e+00
1.4796e-03 7.2890e-04 0.0000e+00
1.6334e-03 7.2445e-04 0.0000e+00
1.7956e-03 7.1534e-04 0.0000e+00
1.9629e-03 7.0290e-04 0.0000e+00
2.1303e-03 6.8909e-04 0.0000e+00
2.2964e-03 6.7273e-04 0.0000e+00
2.4571e-03 6.5624e-04 0.0000e+00
2.6269e-03 6.2732e-04 0.0000e+00
2.7498e-03 6.4671e-04 0.0000e+00
2.9152e-03 6.2030e-04 0.0000e+00
3.0825e-03 6.0377e-04 0.0000e+00
1.4786e-04 8.7598e-04 0.0000e+00
2.9573e-04 8.7589e-04 0.0000e+00
4.4369e-04 8.7579e-04 0.0000e+00
5.9169e-04 8.7567e-04 0.0000e+00
7.3980e-04 8.7556e-04 0.0000e+00
8.8795e-04 8.7545e-04 0.0000e+00
1.0362e-03 8.7524e-04 0.0000e+00
1.1852e-03 8.7453e-04 0.0000e+00
1.3371e-03 8.7168e-04 0.0000e+00
1.4965e-03 8.6396e-04 0.0000e+00
1.6629e-03 8.5314e-04 0.0000e+00
1.8294e-03 8.3954e-04 0.0000e+00
1.9937e-03 8.2666e-04 0.0000e+00
2.1560e-03 8.1344e-04 0.0000e+00
2.3150e-03 8.0109e-04 0.0000e+00
2.4740e-03 7.8607e-04 0.0000e+00
2.6278e-03 7.7313e-04 0.0000e+00
2.7892e-03 7.5264e-04 0.0000e+00
2.9095e-03 7.7340e-04 0.0000e+00
3.0689e-03 7.5049e-04 0.0000e+00
3.1947e-03 7.1912e-04 0.0000e+00
1.4814e-04 1.0212e-03 0.0000e+00
2.9631e-04 1.0210e-03 0.0000e+00
4.4455e-04 1.0208e-03 0.0000e+00
5.9296e-04 1.0205e-03 0.0000e+00
7.4149e-04 1.0202e-03 0.0000e+00
8.9055e-04 1.0196e-03 0.0000e+00
1.0414e-03 1.0177e-03 0.0000e+00
1.1978e-03 1.0118e-03 0.0000e+00
1.3623e-03 1.0018e-03 0.0000e+00
1.5289e-03 9.8922e-04 0.0000e+00
1.6933e-03 9.7636e-04 0.0000e+00
1.8557e-03 9.6458e-04 0.0000e+00
2.0157e-03 9.5271e-04 0.0000e+00
2.1732e-03 9.4203e-04 0.0000e+00
2.3287e-03 9.3161e-04 0.0000e+00
2.4819e-03 9.2208e-04 0.0000e+00
2.6371e-03 9.0920e-04 0.0000e+00
2.7880e-03 9.0010e-04 0.0000e+00
2.9471e-03 8.8129e-04 0.0000e+00
3.0776e-03 8.9830e-04 0.0000e+00
3.1912e-03 8.5765e-04 0.0000e+00
1.4866e-04 1.1656e-03 0.0000e+00
2.9727e-04 1.1654e-03 0.0000e+00
4.4601e-04 1.1650e-03 0.0000e+00
5.9520e-04 1.1642e-03 0.0000e+00
7.4572e-04 1.1627e-03 0.0000e+00
9.0004e-04 1.1584e-03 0.0000e+00
1.0615e-03 1.1500e-03 0.0000e+00
1.2277e-03 1.1379e-03 0.0000e+00
1.3925e-03 1.1250e-03 0.0000e+00
1.5553e-03 1.1130e-03 0.0000e+00
1.7159e-03 1.1019e-03 0.0000e+00
1.8745e-03 1.0914e-03 0.0000e+00
2.0311e-03 1.0818e-03 0.0000e+00
2.1859e-03 1.0727e-03 0.0000e+00
2.3390e-03 1.0644e-03 0.0000e+00
2.4908e-03 1.0564e-03 0.0000e+00
2.6412e-03 1.0487e-03 0.0000e+00
2.7934e-03 1.0384e-03 0.0000e+00
2.9428e-03 1.0318e-03 0.0000e+00
3.0883e-03 1.0243e-03 0.0000e+00
3.2405e-03 9.9962e-04 0.0000e+00
3.3516e-03 1.0294e-03 0.0000e+00
1.4950e-04 1.3088e-03 0.0000e+00
2.9911e-04 1.3083e-03 0.0000e+00
4.4964e-04 1.3069e-03 0.0000e+00
6.0266e-04 1.3036e-03 0.0000e+00
7.6124e-04 1.2966e-03 0.0000e+00
9.2550e-04 1.2861e-03 0.0000e+00
1.0908e-03 1.2730e-03 0.0000e+00
1.2541e-03 1.2606e-03 0.0000e+00
1.4156e-03 1.2490e-03 0.0000e+00
1.5749e-03 1.2386e-03 0.0000e+00
1.7325e-03 1.2290e-03 0.0000e+00
1.8884e-03 1.2204e-03 0.0000e+00
2.0428e-03 1.2123e-03 0.0000e+00
2.1957e-03 1.2049e-03 0.0000e+00
2.3475e-03 1.1980e-03 0.0000e+00
2.4982e-03 1.1914e-03 0.0000e+00
2.6480e-03 1.1850e-03 0.0000e+00
2.7968e-03 1.1786e-03 0.0000e+00
2.9458e-03 1.1714e-03 0.0000e+00
3.0943e-03 1.1643e-03 0.0000e+00
3.2398e-03 1.1536e-03 0.0000e+00
3.3860e-03 1.1399e-03 0.0000e+00
1.5186e-04 1.4489e-03 0.0000e+00
3.0502e-04 1.4466e-03 0.0000e+00
4.6161e-04 1.4416e-03 0.0000e+00
6.2298e-04 1.4326e-03 0.0000e+00
7.8707e-04 1.4204e-03 0.0000e+00
9.5115e-04 1.4072e-03 0.0000e+00
1.1136e-03 1.3952e-03 0.0000e+00
1.2742e-03 1.3840e-03 0.0000e+00
1.4327e-03 1.3742e-03 0.0000e+00
1.5897e-03 1.3653e-03 0.0000e+00
1.7451e-03 1.3575e-03 0.0000e+00
1.8992e-03 1.3503e-03 0.0000e+00
2.0519e-03 1.3439e-03 0.0000e+00
2.2037e-03 1.3378e-03 0.0000e+00
2.3545e-03 1.3322e-03 0.0000e+00
2.5045e-03 1.3268e-03 0.0000e+00
2.6537e-03 1.3216e-03 0.0000e+00
2.8021e-03 1.3164e-03 0.0000e+00
2.9498e-03 1.3111e-03 0.0000e+00
3.0968e-03 1.3060e-03 0.0000e+00
3.2482e-03 1.2997e-03 0.0000e+00
3.3967e-03 1.2964e-03 0.0000e+00
1.5764e-04 1.5810e-03 0.0000e+00
3.1752e-04 1.5754e-03 0.0000e+00
4.8057e-04 1.5654e-03 0.0000e+00
6.4514e-04 1.5530e-03 0.0000e+00
8.0909e-04 1.5399e-03 0.0000e+00
9.7103e-04 1.5281e-03 0.0000e+00
1.1311e-03 1.5174e-03 0.0000e+00
1.2893e-03 1.5083e-03 0.0000e+00
1.4458e-03 1.5002e-03 0.0000e+00
1.6009e-03 1.4931e-03 0.0000e+00
1.7547e-03 1.4868e-03 0.0000e+00
1.9074e-03 1.4812e-03 0.0000e+00
2.0592e-03 1.4760e-03 0.0000e+00
2.2101e-03 1.4713e-03 0.0000e+00
2.3602e-03 1.4668e-03 0.0000e+00
2.5096e-03 1.4625e-03 0.0000e+00
2.6584e-03 1.4584e-03 0.0000e+00
2.8064e-03 1.4542e-03 0.0000e+00
2.9538e-03 1.4501e-03 0.0000e+00
3.1022e-03 1.4468e-03 0.0000e+00
3.2525e-03 1.4453e-03 0.0000e+00
3.4241e-03 1.4530e-03 0.0000e+00
1.6559e-04 1.7018e-03 0.0000e+00
3.3208e-04 1.6933e-03 0.0000e+00
4.9834e-04 1.6818e-03 0.0000e+00
6.6317e-04 1.6696e-03 0.0000e+00
8.2566e-04 1.6585e-03 0.0000e+00
9.8592e-04 1.6486e-03 0.0000e+00
1.1440e-03 1.6403e-03 0.0000e+00
1.3005e-03 1.6331e-03 0.0000e+00
1.4555e-03 1.6269e-03 0.0000e+00
1.6093e-03 1.6214e-03 0.0000e+00
1.7619e-03 1.6167e-03 0.0000e+00
1.9137e-03 1.6124e-03 0.0000e+00
2.0647e-03 1.6086e-03 0.0000e+00
2.2150e-03 1.6050e-03 0.0000e+00
2.3645e-03 1.6017e-03 0.0000e+00
2.5136e-03 1.5985e-03 0.0000e+00
2.6619e-03 1.5953e-03 0.0000e+00
2.8097e-03 1.5922e-03 0.0000e+00
2.9569e-03 1.5891e-03 0.0000e+00
3.1028e-03 1.5861e-03 0.0000e+00
3.2519e-03 1.5830e-03 0.0000e+00
3.3914e-03 1.5811e-03 0.0000e+00
1.7249e-04 1.8119e-03 0.0000e+00
3.4346e-04 1.8041e-03 0.0000e+00
5.1134e-04 1.7942e-03 0.0000e+00
6.7581e-04 1.7849e-03 0.0000e+00
8.3729e-04 1.7764e-03 0.0000e+00
9.9620e-04 1.7694e-03 0.0000e+00
1.1531e-03 1.7634e-03 0.0000e+00
1.3083e-03 1.7584e-03 0.0000e+00
1.4622e-03 1.7540e-03 0.0000e+00
1.6150e-03 1.7503e-03 0.0000e+00
1.7670e-03 1.7470e-03 0.0000e+00
1.9181e-03 1.7441e-03 0.0000e+00
2.0685e-03 1.7415e-03 0.0000e+00
2.2184e-03 1.7390e-03 0.0000e+00
2.3676e-03 1.7367e-03 0.0000e+00
2.5163e-03 1.7345e-03 0.0000e+00
2.6645e-03 1.7324e-03 0.0000e+00
2.8121e-03 1.7303e-03 0.0000e+00
2.9591e-03 1.7282e-03 0.0000e+00
3.1066e-03 1.7253e-03 0.0000e+00
3.2538e-03 1.7215e-03 0.0000e+00
3.4122e-03 1.7079e-03 0.0000e+00
3.5179e-03 1.7391e-03 0.0000e+00
1.7653e-04 1.9157e-03 0.0000e+00
3.5004e-04 1.9106e-03 0.0000e+00
5.1885e-04 1.9048e-03 0.0000e+00
6.8329e-04 1.8991e-03 0.0000e+00
8.4415e-04 1.8943e-03 0.0000e+00
1.0023e-03 1.8902e-03 0.0000e+00
1.1584e-03 1.8869e-03 0.0000e+00
1.3129e-03 1.8839e-03 0.0000e+00
1.4662e-03 1.8816e-03 0.0000e+00
1.6185e-03 1.8794e-03 0.0000e+00
1.7699e-03 1.8776e-03 0.0000e+00
1.9207e-03 1.8760e-03 0.0000e+00
2.0708e-03 1.8745e-03 0.0000e+00
2.2204e-03 1.8732e-03 0.0000e+00
2.3694e-03 1.8719e-03 0.0000e+00
2.5180e-03 1.8707e-03 0.0000e+00
2.6660e-03 1.8696e-03 0.0000e+00
2.8134e-03 1.8685e-03 0.0000e+00
2.9604e-03 1.8674e-03 0.0000e+00
3.1067e-03 1.8663e-03 0.0000e+00
3.2545e-03 1.8626e-03 0.0000e+00
3.3998e-03 1.8615e-03 0.0000e+00
3.5344e-03 1.8515e-03 0.0000e+00
1.7788e-04 2.0165e-03 0.0000e+00
3.5219e-04 2.0155e-03 0.0000e+00
5.2141e-04 2.0142e-03 0.0000e+00
6.8583e-04 2.0130e-03 0.0000e+00
8.4651e-04 2.0120e-03 0.0000e+00
1.0044e-03 2.0112e-03 0.0000e+00
1.1602e-03 2.0104e-03 0.0000e+00
1.3144e-03 2.0098e-03 0.0000e+00
1.4675e-03 2.0092e-03 0.0000e+00
1.6195e-03 2.0087e-03 0.0000e+00
1.7708e-03 2.0083e-03 0.0000e+00
1.9214e-03 2.0080e-03 0.0000e+00
2.0715e-03 2.0077e-03 0.0000e+00
2.2210e-03 2.0074e-03 0.0000e+00
2.3699e-03 2.0072e-03 0.0000e+00
2.5184e-03 2.0070e-03 0.0000e+00
2.6664e-03 2.0068e-03 0.0000e+00
2.8138e-03 2.0066e-03 0.0000e+00
2.9607e-03 2.0065e-03 0.0000e+00
3.1070e-03 2.0064e-03 0.0000e+00
3.2545e-03 2.0091e-03 0.0000e+00
3.3985e-03 2.0092e-03 0.0000e+00
3.5352e-03 2.0194e-03 0.0000e+00
1.7692e-04 2.1173e-03 0.0000e+00
3.5055e-04 2.1201e-03 0.0000e+00
5.1937e-04 2.1237e-03 0.0000e+00
6.8370e-04 2.1269e-03 0.0000e+00
8.4443e-04 2.1298e-03 0.0000e+00
1.0025e-03 2.1321e-03 0.0000e+00
1.1584e-03 2.1340e-03 0.0000e+00
1.3129e-03 2.1355e-03 0.0000e+00
1.4661e-03 2.1369e-03 0.0000e+00
1.6183e-03 2.1380e-03 0.0000e+00
1.7697e-03 2.1391e-03 0.0000e+00
1.9204e-03 2.1400e-03 0.0000e+00
2.0706e-03 2.1408e-03 0.0000e+00
2.2201e-03 2.1416e-03 0.0000e+00
2.3692e-03 2.1424e-03 0.0000e+00
2.5177e-03 2.1432e-03 0.0000e+00
2.6657e-03 2.1440e-03 0.0000e+00
2.8132e-03 2.1448e-03 0.0000e+00
2.9602e-03 2.1457e-03 0.0000e+00
3.1074e-03 2.1475e-03 0.0000e+00
3.2526e-03 2.1502e-03 0.0000e+00
3.4080e-03 2.1637e-03 0.0000e+00
3.5116e-03 2.1338e-03 0.0000e+00
1.7367e-04 2.2202e-03 0.0000e+00
3.4503e-04 2.2265e-03 0.0000e+00
5.1276e-04 2.2341e-03 0.0000e+00
6.7689e-04 2.2415e-03 0.0000e+00
8.3797e-04 2.2478e-03 0.0000e+00
9.9658e-04 2.2531e-03 0.0000e+00
1.1532e-03 2.2575e-03 0.0000e+00
1.3083e-03 2.2613e-03 0.0000e+00
1.4621e-03 2.2645e-03 0.0000e+00
1.6148e-03 2.2673e-03 0.0000e+00
1.7666e-03 2.2697e-03 0.0000e+00
1.9177e-03 2.2719e-03 0.0000e+00
2.0680e-03 2.2739e-03 0.0000e+00
2.2179e-03 2.2758e-03 0.0000e+00
2.3671e-03 2.2776e-03 0.0000e+00
2.5158e-03 2.2794e-03 0.0000e+00
2.6640e-03 2.2812e-03 0.0000e+00
2.8117e-03 2.2830e-03 0.0000e+00
2.9587e-03 2.2848e-03 0.0000e+00
3.1040e-03 2.2867e-03 0.0000e+00
3.2523e-03 2.2886e-03 0.0000e+00
3.3856e-03 2.2902e-03 0.0000e+00
3.5322e-03 2.2882e-03 0.0000e+00
1.6783e-04 2.3287e-03 0.0000e+00
3.3528e-04 2.3365e-03 0.0000e+00
5.0132e-04 2.3467e-03 0.0000e+00
6.6533e-04 2.3569e-03 0.0000e+00
8.2708e-04 2.3662e-03 0.0000e+00
9.8670e-04 2.3741e-03 0.0000e+00
1.1445e-03 2.3810e-03 0.0000e+00
1.3006e-03 2.3868e-03 0.0000e+00
1.4553e-03 2.3919e-03 0.0000e+00
1.6089e-03 2.3963e-03 0.0000e+00
1.7614e-03 2.4002e-03 0.0000e+00
1.9130e-03 2.4037e-03 0.0000e+00
2.0639e-03 2.4069e-03 0.0000e+00
2.2142e-03 2.4099e-03 0.0000e+00
2.3638e-03 2.4127e-03 0.0000e+00
2.5128e-03 2.4155e-03 0.0000e+00
2.6612e-03 2.4182e-03 0.0000e+00
2.8091e-03 2.4210e-03 0.0000e+00
2.9563e-03 2.4239e-03 0.0000e+00
3.1048e-03 2.4259e-03 0.0000e+00
3.2579e-03 2.4288e-03 0.0000e+00
3.4304e-03 2.4186e-03 0.0000e+00
1.6008e-04 2.4459e-03 0.0000e+00
3.2192e-04 2.4527e-03 0.0000e+00
4.8532e-04 2.4628e-03 0.0000e+00
6.4901e-04 2.4742e-03 0.0000e+00
8.1171e-04 2.4853e-03 0.0000e+00
9.7272e-04 2.4954e-03 0.0000e+00
1.1320e-03 2.5042e-03 0.0000e+00
1.2896e-03 2.5120e-03 0.0000e+00
1.4457e-03 2.5188e-03 0.0000e+00
1.6005e-03 2.5250e-03 0.0000e+00
1.7540e-03 2.5303e-03 0.0000e+00
1.9065e-03 2.5352e-03 0.0000e+00
2.0582e-03 2.5396e-03 0.0000e+00
2.2090e-03 2.5437e-03 0.0000e+00
2.3592e-03 2.5476e-03 0.0000e+00
2.5086e-03 2.5514e-03 0.0000e+00
2.6574e-03 2.5552e-03 0.0000e+00
2.8056e-03 2.5590e-03 0.0000e+00
2.9530e-03 2.5628e-03 0.0000e+00
3.1040e-03 2.5704e-03 0.0000e+00
3.2564e-03 2.5738e-03 0.0000e+00
3.4239e-03 2.5877e-03 0.0000e+00
1.5322e-04 2.5748e-03 0.0000e+00
3.0828e-04 2.5782e-03 0.0000e+00
4.6692e-04 2.5849e-03 0.0000e+00
6.2871e-04 2.5945e-03 0.0000e+00
7.9184e-04 2.6057e-03 0.0000e+00
9.5445e-04 2.6170e-03 0.0000e+00
1.1155e-03 2.6275e-03 0.0000e+00
1.2749e-03 2.6368e-03 0.0000e+00
1.4328e-03 2.6454e-03 0.0000e+00
1.5892e-03 2.6531e-03 0.0000e+00
1.7442e-03 2.6600e-03 0.0000e+00
1.8980e-03 2.6662e-03 0.0000e+00
2.0507e-03 2.6720e-03 0.0000e+00
2.2024e-03 2.6772e-03 0.0000e+00
2.3533e-03 2.6823e-03 0.0000e+00
2.5033e-03 2.6871e-03 0.0000e+00
2.6525e-03 2.6920e-03 0.0000e+00
2.8011e-03 2.6968e-03 0.0000e+00
2.9515e-03 2.7045e-03 0.0000e+00
3.0994e-03 2.7112e-03 0.0000e+00
3.2570e-03 2.7259e-03 0.0000e+00
3.3771e-03 2.7002e-03 0.0000e+00
1.4983e-04 2.7131e-03 0.0000e+00
3.0000e-04 2.7140e-03 0.0000e+00
4.5195e-04 2.7165e-03 0.0000e+00
6.0790e-04 2.7213e-03 0.0000e+00
7.6850e-04 2.7291e-03 0.0000e+00
9.3145e-04 2.7397e-03 0.0000e+00
1.0946e-03 2.7507e-03 0.0000e+00
1.2563e-03 2.7615e-03 0.0000e+00
1.4161e-03 2.7714e-03 0.0000e+00
1.5745e-03 2.7805e-03 0.0000e+00
1.7316e-03 2.7888e-03 0.0000e+00
1.8872e-03 2.7966e-03 0.0000e+00
2.0413e-03 2.8037e-03 0.0000e+00
2.1942e-03 2.8103e-03 0.0000e+00
2.3460e-03 2.8165e-03 0.0000e+00
2.4968e-03 2.8226e-03 0.0000e+00
2.6466e-03 2.8285e-03 0.0000e+00
2.7965e-03 2.8354e-03 0.0000e+00
2.9444e-03 2.8431e-03 0.0000e+00
3.1045e-03 2.8629e-03 0.0000e+00
3.2210e-03 2.8368e-03 0.0000e+00
3.3752e-03 2.8564e-03 0.0000e+00
1.4872e-04 2.8559e-03 0.0000e+00
2.9741e-04 2.8562e-03 0.0000e+00
4.4649e-04 2.8567e-03 0.0000e+00
5.9634e-04 2.8576e-03 0.0000e+00
7.4845e-04 2.8606e-03 0.0000e+00
9.0581e-04 2.8662e-03 0.0000e+00
1.0686e-03 2.8747e-03 0.0000e+00
1.2324e-03 2.8860e-03 0.0000e+00
1.3947e-03 2.8970e-03 0.0000e+00
1.5557e-03 2.9070e-03 0.0000e+00
1.7152e-03 2.9168e-03 0.0000e+00
1.8731e-03 2.9259e-03 0.0000e+00
2.0295e-03 2.9346e-03 0.0000e+00
2.1841e-03 2.9427e-03 0.0000e+00
2.3372e-03 2.9503e-03 0.0000e+00
2.4890e-03 2.9576e-03 0.0000e+00
2.6397e-03 2.9648e-03 0.0000e+00
2.7881e-03 2.9718e-03 0.0000e+00
2.9390e-03 2.9818e-03 0.0000e+00
3.0705e-03 2.9877e-03 0.0000e+00
3.2298e-03 2.9927e-03 0.0000e+00
3.3691e-03 2.9978e-03 0.0000e+00
1.4818e-04 3.0003e-03 0.0000e+00
2.9645e-04 3.0004e-03 0.0000e+00
4.4479e-04 3.0005e-03 0.0000e+00
5.9316e-04 3.0008e-03 0.0000e+00
7.4189e-04 3.0013e-03 0.0000e+00
8.9168e-04 3.0022e-03 0.0000e+00
1.0443e-03 3.0054e-03 0.0000e+00
1.2032e-03 3.0122e-03 0.0000e+00
1.3675e-03 3.0219e-03 0.0000e+00
1.5314e-03 3.0331e-03 0.0000e+00
1.6936e-03 3.0434e-03 0.0000e+00
1.8546e-03 3.0537e-03 0.0000e+00
2.0139e-03 3.0639e-03 0.0000e+00
2.1712e-03 3.0738e-03 0.0000e+00
2.3265e-03 3.0831e-03 0.0000e+00
2.4798e-03 3.0920e-03 0.0000e+00
2.6316e-03 3.1005e-03 0.0000e+00
2.7853e-03 3.1110e-03 0.0000e+00
2.9357e-03 3.1198e-03 0.0000e+00
3.1040e-03 3.1266e-03 0.0000e+00
3.2130e-03 3.1335e-03 0.0000e+00
1.4792e-04 3.1453e-03 0.0000e+00
2.9584e-04 3.1454e-03 0.0000e+00
4.4377e-04 3.1455e-03 0.0000e+00
5.9179e-04 3.1456e-03 0.0000e+00
7.3995e-04 3.1457e-03 0.0000e+00
8.8810e-04 3.1458e-03 0.0000e+00
1.0365e-03 3.1463e-03 0.0000e+00
1.1863e-03 3.1474e-03 0.0000e+00
1.3400e-03 3.1515e-03 0.0000e+00
1.5012e-03 3.1592e-03 0.0000e+00
1.6659e-03 3.1693e-03 0.0000e+00
1.8295e-03 3.1802e-03 0.0000e+00
1.9924e-03 3.1910e-03 0.0000e+00
2.1538e-03 3.2026e-03 0.0000e+00
2.3126e-03 3.2141e-03 0.0000e+00
2.4687e-03 3.2251e-03 0.0000e+00
2.6231e-03 3.2366e-03 0.0000e+00
2.7741e-03 3.2484e-03 0.0000e+00
2.9378e-03 3.2710e-03 0.0000e+00
3.0577e-03 3.2474e-03 0.0000e+00
3.2134e-03 3.2747e-03 0.0000e+00
1.4774e-04 3.2909e-03 0.0000e+00
2.9545e-04 3.2909e-03 0.0000e+00
4.4318e-04 3.2910e-03 0.0000e+00
5.9096e-04 3.2910e-03 0.0000e+00
7.3874e-04 3.2910e-03 0.0000e+00
8.8653e-04 3.2911e-03 0.0000e+00
1.0344e-03 3.2912e-03 0.0000e+00
1.1823e-03 3.2913e-03 0.0000e+00
1.3306e-03 3.2916e-03 0.0000e+00
1.4806e-03 3.2931e-03 0.0000e+00
1.6361e-03 3.2984e-03 0.0000e+00
1.7986e-03 3.3065e-03 0.0000e+00
1.9632e-03 3.3169e-03 0.0000e+00
2.1281e-03 3.3283e-03 0.0000e+00
2.2927e-03 3.3416e-03 0.0000e+00
2.4538e-03 3.3558e-03 0.0000e+00
2.6096e-03 3.3692e-03 0.0000e+00
2.7643e-03 3.3837e-03 0.0000e+00
2.8994e-03 3.3954e-03 0.0000e+00
3.0609e-03 3.4044e-03 0.0000e+00
3.2005e-03 3.4136e-03 0.0000e+00
1.4757e-04 3.4368e-03 0.0000e+00
2.9515e-04 3.4368e-03 0.0000e+00
4.4275e-04 3.4368e-03 0.0000e+00
5.9035e-04 3.4368e-03 0.0000e+00
7.3794e-04 3.4369e-03 0.0000e+00
8.8554e-04 3.4369e-03 0.0000e+00
1.0332e-03 3.4370e-03 0.0000e+00
1.1808e-03 3.4370e-03 0.0000e+00
1.3284e-03 3.4369e-03 0.0000e+00
1.4760e-03 3.4369e-03 0.0000e+00
1.6241e-03 3.4373e-03 0.0000e+00
1.7750e-03 3.4397e-03 0.0000e+00
1.9322e-03 3.4456e-03 0.0000e+00
2.0953e-03 3.4538e-03 0.0000e+00
2.2616e-03 3.4653e-03 0.0000e+00
2.4302e-03 3.4806e-03 0.0000e+00
2.5965e-03 3.4994e-03 0.0000e+00
2.7545e-03 3.5165e-03 0.0000e+00
2.9314e-03 3.5345e-03 0.0000e+00
3.0399e-03 3.5437e-03 0.0000e+00
1.4743e-04 3.5826e-03 0.0000e+00
2.9487e-04 3.5826e-03 0.0000e+00
4.4230e-04 3.5826e-03 0.0000e+00
5.8975e-04 3.5827e-03 0.0000e+00
7.3720e-04 3.5827e-03 0.0000e+00
8.8465e-04 3.5827e-03 0.0000e+00
1.0321e-03 3.5827e-03 0.0000e+00
1.1796e-03 3.5827e-03 0.0000e+00
1.3271e-03 3.5827e-03 0.0000e+00
1.4745e-03 3.5827e-03 0.0000e+00
1.6219e-03 3.5826e-03 0.0000e+00
1.7693e-03 3.5825e-03 0.0000e+00
1.9176e-03 3.5833e-03 0.0000e+00
2.0694e-03 3.5862e-03 0.0000e+00
2.2275e-03 3.5918e-03 0.0000e+00
2.3928e-03 3.6017e-03 0.0000e+00
2.5653e-03 3.6190e-03 0.0000e+00
2.7420e-03 3.6467e-03 0.0000e+00
2.8881e-03 3.6668e-03 0.0000e+00
3.0464e-03 3.6813e-03 0.0000e+00
1.4729e-04 3.7273e-03 0.0000e+00
2.9459e-04 3.7266e-03 0.0000e+00
4.4189e-04 3.7266e-03 0.0000e+00
5.8919e-04 3.7266e-03 0.0000e+00
7.3650e-04 3.7266e-03 0.0000e+00
8.8382e-04 3.7266e-03 0.0000e+00
1.0311e-03 3.7267e-03 0.0000e+00
1.1785e-03 3.7266e-03 0.0000e+00
1.3258e-03 3.7266e-03 0.0000e+00
1.4731e-03 3.7266e-03 0.0000e+00
1.6204e-03 3.7266e-03 0.0000e+00
1.7677e-03 3.7265e-03 0.0000e+00
1.9149e-03 3.7265e-03 0.0000e+00
2.0622e-03 3.7264e-03 0.0000e+00
2.2105e-03 3.7274e-03 0.0000e+00
2.3628e-03 3.7301e-03 0.0000e+00
2.5282e-03 3.7387e-03 0.0000e+00
2.7189e-03 3.7610e-03 0.0000e+00
2.9373e-03 3.8083e-03 0.0000e+00
1.4715e-04 3.8680e-03 0.0000e+00
2.9434e-04 3.8662e-03 0.0000e+00
4.4151e-04 3.8659e-03 0.0000e+00
5.8868e-04 3.8659e-03 0.0000e+00
7.3586e-04 3.8659e-03 0.0000e+00
8.8304e-04 3.8659e-03 0.0000e+00
1.0302e-03 3.8659e-03 0.0000e+00