# vtk DataFile Version 3.0
VTK Example
ASCII
DATASET UNSTRUCTURED_GRID
POINTS 972 float 
0 0 0.0
0.0025 0 0.0
0.0025 0.0075 0.0
0 0.0075 0.0
0.0001471 0 0.0
0.0002941 0 0.0
0.0004412 0 0.0
0.0005882 0 0.0
0.0007353 0 0.0
0.0008824 0 0.0
0.001029 0 0.0
0.001176 0 0.0
0.001324 0 0.0
0.001471 0 0.0
0.001618 0 0.0
0.001765 0 0.0
0.001912 0 0.0
0.002059 0 0.0
0.002206 0 0.0
0.002353 0 0.0
0.0025 0.0001471 0.0
0.0025 0.0002941 0.0
0.0025 0.0004412 0.0
0.0025 0.0005882 0.0
0.0025 0.0007353 0.0
0.0025 0.0008824 0.0
0.0025 0.001029 0.0
0.0025 0.001176 0.0
0.0025 0.001324 0.0
0.0025 0.001471 0.0
0.0025 0.001618 0.0
0.0025 0.001765 0.0
0.0025 0.001912 0.0
0.0025 0.002059 0.0
0.0025 0.002206 0.0
0.0025 0.002353 0.0
0.0025 0.0025 0.0
0.0025 0.002647 0.0
0.0025 0.002794 0.0
0.0025 0.002941 0.0
0.0025 0.003088 0.0
0.0025 0.003235 0.0
0.0025 0.003382 0.0
0.0025 0.003529 0.0
0.0025 0.003676 0.0
0.0025 0.003824 0.0
0.0025 0.003971 0.0
0.0025 0.004118 0.0
0.0025 0.004265 0.0
0.0025 0.004412 0.0
0.0025 0.004559 0.0
0.0025 0.004706 0.0
0.0025 0.004853 0.0
0.0025 0.005 0.0
0.0025 0.005147 0.0
0.0025 0.005294 0.0
0.0025 0.005441 0.0
0.0025 0.005588 0.0
0.0025 0.005735 0.0
0.0025 0.005882 0.0
0.0025 0.006029 0.0
0.0025 0.006176 0.0
0.0025 0.006324 0.0
0.0025 0.006471 0.0
0.0025 0.006618 0.0
0.0025 0.006765 0.0
0.0025 0.006912 0.0
0.0025 0.007059 0.0
0.0025 0.007206 0.0
0.0025 0.007353 0.0
0.002353 0.0075 0.0
0.002206 0.0075 0.0
0.002059 0.0075 0.0
0.001912 0.0075 0.0
0.001765 0.0075 0.0
0.001618 0.0075 0.0
0.001471 0.0075 0.0
0.001324 0.0075 0.0
0.001176 0.0075 0.0
0.001029 0.0075 0.0
0.0008824 0.0075 0.0
0.0007353 0.0075 0.0
0.0005882 0.0075 0.0
0.0004412 0.0075 0.0
0.0002941 0.0075 0.0
0.0001471 0.0075 0.0
0 0.007353 0.0
0 0.007206 0.0
0 0.007059 0.0
0 0.006912 0.0
0 0.006765 0.0
0 0.006618 0.0
0 0.006471 0.0
0 0.006324 0.0
0 0.006176 0.0
0 0.006029 0.0
0 0.005882 0.0
0 0.005735 0.0
0 0.005588 0.0
0 0.005441 0.0
0 0.005294 0.0
0 0.005147 0.0
0 0.005 0.0
0 0.004853 0.0
0 0.004706 0.0
0 0.004559 0.0
0 0.004412 0.0
0 0.004265 0.0
0 0.004118 0.0
0 0.003971 0.0
0 0.003824 0.0
0 0.003676 0.0
0 0.003529 0.0
0 0.003382 0.0
0 0.003235 0.0
0 0.003088 0.0
0 0.002941 0.0
0 0.002794 0.0
0 0.002647 0.0
0 0.0025 0.0
0 0.002353 0.0
0 0.002206 0.0
0 0.002059 0.0
0 0.001912 0.0
0 0.001765 0.0
0 0.001618 0.0
0 0.001471 0.0
0 0.001324 0.0
0 0.001176 0.0
0 0.001029 0.0
0 0.0008824 0.0
0 0.0007353 0.0
0 0.0005882 0.0
0 0.0004412 0.0
0 0.0002941 0.0
0 0.0001471 0.0
0.0001471 0.0001471 0.0
0.0001471 0.0002941 0.0
0.0001471 0.0004412 0.0
0.0001471 0.0005882 0.0
0.0001471 0.0007353 0.0
0.0001471 0.0008824 0.0
0.0001471 0.001029 0.0
0.0001471 0.001176 0.0
0.0001471 0.001324 0.0
0.0001471 0.001471 0.0
0.0001471 0.001618 0.0
0.0001471 0.001765 0.0
0.0001471 0.001912 0.0
0.0001471 0.002059 0.0
0.0001471 0.002206 0.0
0.0001471 0.002353 0.0
0.0001471 0.0025 0.0
0.0001471 0.002647 0.0
0.0001471 0.002794 0.0
0.0001471 0.002941 0.0
0.0001471 0.003088 0.0
0.0001471 0.003235 0.0
0.0001471 0.003382 0.0
0.0001471 0.003529 0.0
0.0001471 0.003676 0.0
0.0001471 0.003824 0.0
0.0001471 0.003971 0.0
0.0001471 0.004118 0.0
0.0001471 0.004265 0.0
0.0001471 0.004412 0.0
0.0001471 0.004559 0.0
0.0001471 0.004706 0.0
0.0001471 0.004853 0.0
0.0001471 0.005 0.0
0.0001471 0.005147 0.0
0.0001471 0.005294 0.0
0.0001471 0.005441 0.0
0.0001471 0.005588 0.0
0.0001471 0.005735 0.0
0.0001471 0.005882 0.0
0.0001471 0.006029 0.0
0.0001471 0.006176 0.0
0.0001471 0.006324 0.0
0.0001471 0.006471 0.0
0.0001471 0.006618 0.0
0.0001471 0.006765 0.0
0.0001471 0.006912 0.0
0.0001471 0.007059 0.0
0.0001471 0.007206 0.0
0.0001471 0.007353 0.0
0.0002941 0.0001471 0.0
0.0002941 0.0002941 0.0
0.0002941 0.0004412 0.0
0.0002941 0.0005882 0.0
0.0002941 0.0007353 0.0
0.0002941 0.0008824 0.0
0.0002941 0.001029 0.0
0.0002941 0.001176 0.0
0.0002941 0.001324 0.0
0.0002941 0.001471 0.0
0.0002941 0.001618 0.0
0.0002941 0.001765 0.0
0.0002941 0.001912 0.0
0.0002941 0.002059 0.0
0.0002941 0.002206 0.0
0.0002941 0.002353 0.0
0.0002941 0.0025 0.0
0.0002941 0.002647 0.0
0.0002941 0.002794 0.0
0.0002941 0.002941 0.0
0.0002941 0.003088 0.0
0.0002941 0.003235 0.0
0.0002941 0.003382 0.0
0.0002941 0.003529 0.0
0.0002941 0.003676 0.0
0.0002941 0.003824 0.0
0.0002941 0.003971 0.0
0.0002941 0.004118 0.0
0.0002941 0.004265 0.0
0.0002941 0.004412 0.0
0.0002941 0.004559 0.0
0.0002941 0.004706 0.0
0.0002941 0.004853 0.0
0.0002941 0.005 0.0
0.0002941 0.005147 0.0
0.0002941 0.005294 0.0
0.0002941 0.005441 0.0
0.0002941 0.005588 0.0
0.0002941 0.005735 0.0
0.0002941 0.005882 0.0
0.0002941 0.006029 0.0
0.0002941 0.006176 0.0
0.0002941 0.006324 0.0
0.0002941 0.006471 0.0
0.0002941 0.006618 0.0
0.0002941 0.006765 0.0
0.0002941 0.006912 0.0
0.0002941 0.007059 0.0
0.0002941 0.007206 0.0
0.0002941 0.007353 0.0
0.0004412 0.0001471 0.0
0.0004412 0.0002941 0.0
0.0004412 0.0004412 0.0
0.0004412 0.0005882 0.0
0.0004412 0.0007353 0.0
0.0004412 0.0008824 0.0
0.0004412 0.001029 0.0
0.0004412 0.001176 0.0
0.0004412 0.001324 0.0
0.0004412 0.001471 0.0
0.0004412 0.001618 0.0
0.0004412 0.001765 0.0
0.0004412 0.001912 0.0
0.0004412 0.002059 0.0
0.0004412 0.002206 0.0
0.0004412 0.002353 0.0
0.0004412 0.0025 0.0
0.0004412 0.002647 0.0
0.0004412 0.002794 0.0
0.0004412 0.002941 0.0
0.0004412 0.003088 0.0
0.0004412 0.003235 0.0
0.0004412 0.003382 0.0
0.0004412 0.003529 0.0
0.0004412 0.003676 0.0
0.0004412 0.003824 0.0
0.0004412 0.003971 0.0
0.0004412 0.004118 0.0
0.0004412 0.004265 0.0
0.0004412 0.004412 0.0
0.0004412 0.004559 0.0
0.0004412 0.004706 0.0
0.0004412 0.004853 0.0
0.0004412 0.005 0.0
0.0004412 0.005147 0.0
0.0004412 0.005294 0.0
0.0004412 0.005441 0.0
0.0004412 0.005588 0.0
0.0004412 0.005735 0.0
0.0004412 0.005882 0.0
0.0004412 0.006029 0.0
0.0004412 0.006176 0.0
0.0004412 0.006324 0.0
0.0004412 0.006471 0.0
0.0004412 0.006618 0.0
0.0004412 0.006765 0.0
0.0004412 0.006912 0.0
0.0004412 0.007059 0.0
0.0004412 0.007206 0.0
0.0004412 0.007353 0.0
0.0005882 0.0001471 0.0
0.0005882 0.0002941 0.0
0.0005882 0.0004412 0.0
0.0005882 0.0005882 0.0
0.0005882 0.0007353 0.0
0.0005882 0.0008824 0.0
0.0005882 0.001029 0.0
0.0005882 0.001176 0.0
0.0005882 0.001324 0.0
0.0005882 0.001471 0.0
0.0005882 0.001618 0.0
0.0005882 0.001765 0.0
0.0005882 0.001912 0.0
0.0005882 0.002059 0.0
0.0005882 0.002206 0.0
0.0005882 0.002353 0.0
0.0005882 0.0025 0.0
0.0005882 0.002647 0.0
0.0005882 0.002794 0.0
0.0005882 0.002941 0.0
0.0005882 0.003088 0.0
0.0005882 0.003235 0.0
0.0005882 0.003382 0.0
0.0005882 0.003529 0.0
0.0005882 0.003676 0.0
0.0005882 0.003824 0.0
0.0005882 0.003971 0.0
0.0005882 0.004118 0.0
0.0005882 0.004265 0.0
0.0005882 0.004412 0.0
0.0005882 0.004559 0.0
0.0005882 0.004706 0.0
0.0005882 0.004853 0.0
0.0005882 0.005 0.0
0.0005882 0.005147 0.0
0.0005882 0.005294 0.0
0.0005882 0.005441 0.0
0.0005882 0.005588 0.0
0.0005882 0.005735 0.0
0.0005882 0.005882 0.0
0.0005882 0.006029 0.0
0.0005882 0.006176 0.0
0.0005882 0.006324 0.0
0.0005882 0.006471 0.0
0.0005882 0.006618 0.0
0.0005882 0.006765 0.0
0.0005882 0.006912 0.0
0.0005882 0.007059 0.0
0.0005882 0.007206 0.0
0.0005882 0.007353 0.0
0.0007353 0.0001471 0.0
0.0007353 0.0002941 0.0
0.0007353 0.0004412 0.0
0.0007353 0.0005882 0.0
0.0007353 0.0007353 0.0
0.0007353 0.0008824 0.0
0.0007353 0.001029 0.0
0.0007353 0.001176 0.0
0.0007353 0.001324 0.0
0.0007353 0.001471 0.0
0.0007353 0.001618 0.0
0.0007353 0.001765 0.0
0.0007353 0.001912 0.0
0.0007353 0.002059 0.0
0.0007353 0.002206 0.0
0.0007353 0.002353 0.0
0.0007353 0.0025 0.0
0.0007353 0.002647 0.0
0.0007353 0.002794 0.0
0.0007353 0.002941 0.0
0.0007353 0.003088 0.0
0.0007353 0.003235 0.0
0.0007353 0.003382 0.0
0.0007353 0.003529 0.0
0.0007353 0.003676 0.0
0.0007353 0.003824 0.0
0.0007353 0.003971 0.0
0.0007353 0.004118 0.0
0.0007353 0.004265 0.0
0.0007353 0.004412 0.0
0.0007353 0.004559 0.0
0.0007353 0.004706 0.0
0.0007353 0.004853 0.0
0.0007353 0.005 0.0
0.0007353 0.005147 0.0
0.0007353 0.005294 0.0
0.0007353 0.005441 0.0
0.0007353 0.005588 0.0
0.0007353 0.005735 0.0
0.0007353 0.005882 0.0
0.0007353 0.006029 0.0
0.0007353 0.006176 0.0
0.0007353 0.006324 0.0
0.0007353 0.006471 0.0
0.0007353 0.006618 0.0
0.0007353 0.006765 0.0
0.0007353 0.006912 0.0
0.0007353 0.007059 0.0
0.0007353 0.007206 0.0
0.0007353 0.007353 0.0
0.0008824 0.0001471 0.0
0.0008824 0.0002941 0.0
0.0008824 0.0004412 0.0
0.0008824 0.0005882 0.0
0.0008824 0.0007353 0.0
0.0008824 0.0008824 0.0
0.0008824 0.001029 0.0
0.0008824 0.001176 0.0
0.0008824 0.001324 0.0
0.0008824 0.001471 0.0
0.0008824 0.001618 0.0
0.0008824 0.001765 0.0
0.0008824 0.001912 0.0
0.0008824 0.002059 0.0
0.0008824 0.002206 0.0
0.0008824 0.002353 0.0
0.0008824 0.0025 0.0
0.0008824 0.002647 0.0
0.0008824 0.002794 0.0
0.0008824 0.002941 0.0
0.0008824 0.003088 0.0
0.0008824 0.003235 0.0
0.0008824 0.003382 0.0
0.0008824 0.003529 0.0
0.0008824 0.003676 0.0
0.0008824 0.003824 0.0
0.0008824 0.003971 0.0
0.0008824 0.004118 0.0
0.0008824 0.004265 0.0
0.0008824 0.004412 0.0
0.0008824 0.004559 0.0
0.0008824 0.004706 0.0
0.0008824 0.004853 0.0
0.0008824 0.005 0.0
0.0008824 0.005147 0.0
0.0008824 0.005294 0.0
0.0008824 0.005441 0.0
0.0008824 0.005588 0.0
0.0008824 0.005735 0.0
0.0008824 0.005882 0.0
0.0008824 0.006029 0.0
0.0008824 0.006176 0.0
0.0008824 0.006324 0.0
0.0008824 0.006471 0.0
0.0008824 0.006618 0.0
0.0008824 0.006765 0.0
0.0008824 0.006912 0.0
0.0008824 0.007059 0.0
0.0008824 0.007206 0.0
0.0008824 0.007353 0.0
0.001029 0.0001471 0.0
0.001029 0.0002941 0.0
0.001029 0.0004412 0.0
0.001029 0.0005882 0.0
0.001029 0.0007353 0.0
0.001029 0.0008824 0.0
0.001029 0.001029 0.0
0.001029 0.001176 0.0
0.001029 0.001324 0.0
0.001029 0.001471 0.0
0.001029 0.001618 0.0
0.001029 0.001765 0.0
0.001029 0.001912 0.0
0.001029 0.002059 0.0
0.001029 0.002206 0.0
0.001029 0.002353 0.0
0.001029 0.0025 0.0
0.001029 0.002647 0.0
0.001029 0.002794 0.0
0.001029 0.002941 0.0
0.001029 0.003088 0.0
0.001029 0.003235 0.0
0.001029 0.003382 0.0
0.001029 0.003529 0.0
0.001029 0.003676 0.0
0.001029 0.003824 0.0
0.001029 0.003971 0.0
0.001029 0.004118 0.0
[...]
POINT_DATA 972
VECTORS Position float
0.0000e+00 0.0000e+00 0.0000e+00
2.5000e-03 0.0000e+00 0.0000e+00
2.5000e-03 7.5000e-03 0.0000e+00
0.0000e+00 7.5000e-03 0.0000e+00
1.4710e-04 0.0000e+00 0.0000e+00
2.9410e-04 0.0000e+00 0.0000e+00
4.4120e-04 0.0000e+00 0.0000e+00
5.8820e-04 0.0000e+00 0.0000e+00
7.3530e-04 0.0000e+00 0.0000e+00
8.8240e-04 0.0000e+00 0.0000e+00
1.0290e-03 0.0000e+00 0.0000e+00
1.1760e-03 0.0000e+00 0.0000e+00
1.3240e-03 0.0000e+00 0.0000e+00
1.4710e-03 0.0000e+00 0.0000e+00
1.6180e-03 0.0000e+00 0.0000e+00
1.7650e-03 0.0000e+00 0.0000e+00
1.9120e-03 0.0000e+00 0.0000e+00
2.0590e-03 0.0000e+00 0.0000e+00
2.2060e-03 0.0000e+00 0.0000e+00
2.3530e-03 0.0000e+00 0.0000e+00
2.5000e-03 1.4710e-04 0.0000e+00
2.5000e-03 2.9410e-04 0.0000e+00
2.5000e-03 4.4120e-04 0.0000e+00
2.5000e-03 5.8820e-04 0.0000e+00
2.5000e-03 7.3530e-04 0.0000e+00
2.5000e-03 8.8240e-04 0.0000e+00
2.5000e-03 1.0290e-03 0.0000e+00
2.5000e-03 1.1760e-03 0.0000e+00
2.5000e-03 1.3240e-03 0.0000e+00
2.5000e-03 1.4710e-03 0.0000e+00
2.5000e-03 1.6180e-03 0.0000e+00
2.5000e-03 1.7650e-03 0.0000e+00
2.5000e-03 1.9120e-03 0.0000e+00
2.5000e-03 2.0590e-03 0.0000e+00
2.5000e-03 2.2060e-03 0.0000e+00
2.5000e-03 2.3530e-03 0.0000e+00
2.5000e-03 2.5000e-03 0.0000e+00
2.5000e-03 2.6470e-03 0.0000e+00
2.5000e-03 2.7940e-03 0.0000e+00
2.5000e-03 2.9410e-03 0.0000e+00
2.5000e-03 3.0880e-03 0.0000e+00
2.5000e-03 3.2350e-03 0.0000e+00
2.5000e-03 3.3820e-03 0.0000e+00
2.5000e-03 3.5290e-03 0.0000e+00
2.5000e-03 3.6760e-03 0.0000e+00
2.5000e-03 3.8240e-03 0.0000e+00
2.5000e-03 3.9710e-03 0.0000e+00
2.5000e-03 4.1180e-03 0.0000e+00
2.5000e-03 4.2650e-03 0.0000e+00
2.5000e-03 4.4120e-03 0.0000e+00
2.5000e-03 4.5590e-03 0.0000e+00
2.5000e-03 4.7060e-03 0.0000e+00
2.5000e-03 4.8530e-03 0.0000e+00
2.5000e-03 5.0000e-03 0.0000e+00
2.5000e-03 5.1470e-03 0.0000e+00
2.5000e-03 5.2940e-03 0.0000e+00
2.5000e-03 5.4410e-03 0.0000e+00
2.5000e-03 5.5880e-03 0.0000e+00
2.5000e-03 5.7350e-03 0.0000e+00
2.5000e-03 5.8820e-03 0.0000e+00
2.5000e-03 6.0290e-03 0.0000e+00
2.5000e-03 6.1760e-03 0.0000e+00
2.5000e-03 6.3240e-03 0.0000e+00
2.5000e-03 6.4710e-03 0.0000e+00
2.5000e-03 6.6180e-03 0.0000e+00
2.5000e-03 6.7650e-03 0.0000e+00
2.5000e-03 6.9120e-03 0.0000e+00
2.5000e-03 7.0590e-03 0.0000e+00
2.5000e-03 7.2060e-03 0.0000e+00
2.5000e-03 7.3530e-03 0.0000e+00
2.3530e-03 7.5000e-03 0.0000e+00
2.2060e-03 7.5000e-03 0.0000e+00
2.0590e-03 7.5000e-03 0.0000e+00
1.9120e-03 7.5000e-03 0.0000e+00
1.7650e-03 7.5000e-03 0.0000e+00
1.6180e-03 7.5000e-03 0.0000e+00
1.4710e-03 7.5000e-03 0.0000e+00
1.3240e-03 7.5000e-03 0.0000e+00
1.1760e-03 7.5000e-03 0.0000e+00
1.0290e-03 7.5000e-03 0.0000e+00
8.8240e-04 7.5000e-03 0.0000e+00
7.3530e-04 7.5000e-03 0.0000e+00
5.8820e-04 7.5000e-03 0.0000e+00
4.4120e-04 7.5000e-03 0.0000e+00
2.9410e-04 7.5000e-03 0.0000e+00
1.4710e-04 7.5000e-03 0.0000e+00
0.0000e+00 7.3530e-03 0.0000e+00
0.0000e+00 7.2060e-03 0.0000e+00
0.0000e+00 7.0590e-03 0.0000e+00
0.0000e+00 6.9120e-03 0.0000e+00
0.0000e+00 6.7650e-03 0.0000e+00
0.0000e+00 6.6180e-03 0.0000e+00
0.0000e+00 6.4710e-03 0.0000e+00
0.0000e+00 6.3240e-03 0.0000e+00
0.0000e+00 6.1760e-03 0.0000e+00
0.0000e+00 6.0290e-03 0.0000e+00
0.0000e+00 5.8820e-03 0.0000e+00
0.0000e+00 5.7350e-03 0.0000e+00
0.0000e+00 5.5880e-03 0.0000e+00
0.0000e+00 5.4410e-03 0.0000e+00
0.0000e+00 5.2940e-03 0.0000e+00
0.0000e+00 5.1470e-03 0.0000e+00
0.0000e+00 5.0000e-03 0.0000e+00
0.0000e+00 4.8530e-03 0.0000e+00
0.0000e+00 4.7060e-03 0.0000e+00
0.0000e+00 4.5590e-03 0.0000e+00
0.0000e+00 4.4120e-03 0.0000e+00
0.0000e+00 4.2650e-03 0.0000e+00
0.0000e+00 4.1180e-03 0.0000e+00
0.0000e+00 3.9710e-03 0.0000e+00
0.0000e+00 3.8240e-03 0.0000e+00
0.0000e+00 3.6760e-03 0.0000e+00
0.0000e+00 3.5290e-03 0.0000e+00
0.0000e+00 3.3820e-03 0.0000e+00
0.0000e+00 3.2350e-03 0.0000e+00
0.0000e+00 3.0880e-03 0.0000e+00
0.0000e+00 2.9410e-03 0.0000e+00
0.0000e+00 2.7940e-03 0.0000e+00
0.0000e+00 2.6470e-03 0.0000e+00
0.0000e+00 2.5000e-03 0.0000e+00
0.0000e+00 2.3530e-03 0.0000e+00
0.0000e+00 2.2060e-03 0.0000e+00
0.0000e+00 2.0590e-03 0.0000e+00
0.0000e+00 1.9120e-03 0.0000e+00
0.0000e+00 1.7650e-03 0.0000e+00
0.0000e+00 1.6180e-03 0.0000e+00
0.0000e+00 1.4710e-03 0.0000e+00
0.0000e+00 1.3240e-03 0.0000e+00
0.0000e+00 1.1760e-03 0.0000e+00
0.0000e+00 1.0290e-03 0.0000e+00
0.0000e+00 8.8240e-04 0.0000e+00
0.0000e+00 7.3530e-04 0.0000e+00
0.0000e+00 5.8820e-04 0.0000e+00
0.0000e+00 4.4120e-04 0.0000e+00
0.0000e+00 2.9410e-04 0.0000e+00
0.0000e+00 1.4710e-04 0.0000e+00
1.4710e-04 1.4710e-04 0.0000e+00
1.4710e-04 2.9410e-04 0.0000e+00
1.4710e-04 4.4120e-04 0.0000e+00
1.4710e-04 5.8820e-04 0.0000e+00
1.4710e-04 7.3530e-04 0.0000e+00
1.4710e-04 8.8240e-04 0.0000e+00
1.4710e-04 1.0290e-03 0.0000e+00
1.4710e-04 1.1760e-03 0.0000e+00
1.4710e-04 1.3240e-03 0.0000e+00
1.4710e-04 1.4710e-03 0.0000e+00
1.4710e-04 1.6180e-03 0.0000e+00
1.4710e-04 1.7650e-03 0.0000e+00
1.4710e-04 1.9120e-03 0.0000e+00
1.4710e-04 2.0590e-03 0.0000e+00
1.4710e-04 2.2060e-03 0.0000e+00
1.4710e-04 2.3530e-03 0.0000e+00
1.4710e-04 2.5000e-03 0.0000e+00
1.4710e-04 2.6470e-03 0.0000e+00
1.4710e-04 2.7940e-03 0.0000e+00
1.4710e-04 2.9410e-03 0.0000e+00
1.4710e-04 3.0880e-03 0.0000e+00
1.4710e-04 3.2350e-03 0.0000e+00
1.4710e-04 3.3820e-03 0.0000e+00
1.4710e-04 3.5290e-03 0.0000e+00
1.4710e-04 3.6760e-03 0.0000e+00
1.4710e-04 3.8240e-03 0.0000e+00
1.4710e-04 3.9710e-03 0.0000e+00
1.4710e-04 4.1180e-03 0.0000e+00
1.4710e-04 4.2650e-03 0.0000e+00
1.4710e-04 4.4120e-03 0.0000e+00
1.4710e-04 4.5590e-03 0.0000e+00
1.4710e-04 4.7060e-03 0.0000e+00
1.4710e-04 4.8530e-03 0.0000e+00
1.4710e-04 5.0000e-03 0.0000e+00
1.4710e-04 5.1470e-03 0.0000e+00
1.4710e-04 5.2940e-03 0.0000e+00
1.4710e-04 5.4410e-03 0.0000e+00
1.4710e-04 5.5880e-03 0.0000e+00
1.4710e-04 5.7350e-03 0.0000e+00
1.4710e-04 5.8820e-03 0.0000e+00
1.4710e-04 6.0290e-03 0.0000e+00
1.4710e-04 6.1760e-03 0.0000e+00
1.4710e-04 6.3240e-03 0.0000e+00
1.4710e-04 6.4710e-03 0.0000e+00
1.4710e-04 6.6180e-03 0.0000e+00
1.4710e-04 6.7650e-03 0.0000e+00
1.4710e-04 6.9120e-03 0.0000e+00
1.4710e-04 7.0590e-03 0.0000e+00
1.4710e-04 7.2060e-03 0.0000e+00
1.4710e-04 7.3530e-03 0.0000e+00
2.9410e-04 1.4710e-04 0.0000e+00
2.9410e-04 2.9410e-04 0.0000e+00
2.9410e-04 4.4120e-04 0.0000e+00
2.9410e-04 5.8820e-04 0.0000e+00
2.9410e-04 7.3530e-04 0.0000e+00
2.9410e-04 8.8240e-04 0.0000e+00
2.9410e-04 1.0290e-03 0.0000e+00
2.9410e-04 1.1760e-03 0.0000e+00
2.9410e-04 1.3240e-03 0.0000e+00
2.9410e-04 1.4710e-03 0.0000e+00
2.9410e-04 1.6180e-03 0.0000e+00
2.9410e-04 1.7650e-03 0.0000e+00
2.9410e-04 1.9120e-03 0.0000e+00
2.9410e-04 2.0590e-03 0.0000e+00
2.9410e-04 2.2060e-03 0.0000e+00
2.9410e-04 2.3530e-03 0.0000e+00
2.9410e-04 2.5000e-03 0.0000e+00
2.9410e-04 2.6470e-03 0.0000e+00
2.9410e-04 2.7940e-03 0.0000e+00
2.9410e-04 2.9410e-03 0.0000e+00
2.9410e-04 3.0880e-03 0.0000e+00
2.9410e-04 3.2350e-03 0.0000e+00
2.9410e-04 3.3820e-03 0.0000e+00
2.9410e-04 3.5290e-03 0.0000e+00
2.9410e-04 3.6760e-03 0.0000e+00
2.9410e-04 3.8240e-03 0.0000e+00
2.9410e-04 3.9710e-03 0.0000e+00
2.9410e-04 4.1180e-03 0.0000e+00
2.9410e-04 4.2650e-03 0.0000e+00
2.9410e-04 4.4120e-03 0.0000e+00
2.9410e-04 4.5590e-03 0.0000e+00
2.9410e-04 4.7060e-03 0.0000e+00
2.9410e-04 4.8530e-03 0.0000e+00
2.9410e-04 5.0000e-03 0.0000e+00
2.9410e-04 5.1470e-03 0.0000e+00
2.9410e-04 5.2940e-03 0.0000e+00
2.9410e-04 5.4410e-03 0.0000e+00
2.9410e-04 5.5880e-03 0.0000e+00
2.9410e-04 5.7350e-03 0.0000e+00
2.9410e-04 5.8820e-03 0.0000e+00
2.9410e-04 6.0290e-03 0.0000e+00
2.9410e-04 6.1760e-03 0.0000e+00
2.9410e-04 6.3240e-03 0.0000e+00
2.9410e-04 6.4710e-03 0.0000e+00
2.9410e-04 6.6180e-03 0.0000e+00
2.9410e-04 6.7650e-03 0.0000e+00
2.9410e-04 6.9120e-03 0.0000e+00
2.9410e-04 7.0590e-03 0.0000e+00
2.9410e-04 7.2060e-03 0.0000e+00
2.9410e-04 7.3530e-03 0.0000e+00
4.4120e-04 1.4710e-04 0.0000e+00
4.4120e-04 2.9410e-04 0.0000e+00
4.4120e-04 4.4120e-04 0.0000e+00
4.4120e-04 5.8820e-04 0.0000e+00
4.4120e-04 7.3530e-04 0.0000e+00
4.4120e-04 8.8240e-04 0.0000e+00
4.4120e-04 1.0290e-03 0.0000e+00
4.4120e-04 1.1760e-03 0.0000e+00
4.4120e-04 1.3240e-03 0.0000e+00
4.4120e-04 1.4710e-03 0.0000e+00
4.4120e-04 1.6180e-03 0.0000e+00
4.4120e-04 1.7650e-03 0.0000e+00
4.4120e-04 1.9120e-03 0.0000e+00
4.4120e-04 2.0590e-03 0.0000e+00
4.4120e-04 2.2060e-03 0.0000e+00
4.4120e-04 2.3530e-03 0.0000e+00
4.4120e-04 2.5000e-03 0.0000e+00
4.4120e-04 2.6470e-03 0.0000e+00
4.4120e-04 2.7940e-03 0.0000e+00
4.4120e-04 2.9410e-03 0.0000e+00
4.4120e-04 3.0880e-03 0.0000e+00
4.4120e-04 3.2350e-03 0.0000e+00
4.4120e-04 3.3820e-03 0.0000e+00
4.4120e-04 3.5290e-03 0.0000e+00
4.4120e-04 3.6760e-03 0.0000e+00
4.4120e-04 3.8240e-03 0.0000e+00
4.4120e-04 3.9710e-03 0.0000e+00
4.4120e-04 4.1180e-03 0.0000e+00
4.4120e-04 4.2650e-03 0.0000e+00
4.4120e-04 4.4120e-03 0.0000e+00
4.4120e-04 4.5590e-03 0.0000e+00
4.4120e-04 4.7060e-03 0.0000e+00
4.4120e-04 4.8530e-03 0.0000e+00
4.4120e-04 5.0000e-03 0.0000e+00
4.4120e-04 5.1470e-03 0.0000e+00
4.4120e-04 5.2940e-03 0.0000e+00
4.4120e-04 5.4410e-03 0.0000e+00
4.4120e-04 5.5880e-03 0.0000e+00
4.4120e-04 5.7350e-03 0.0000e+00
4.4120e-04 5.8820e-03 0.0000e+00
4.4120e-04 6.0290e-03 0.0000e+00
4.4120e-04 6.1760e-03 0.0000e+00
4.4120e-04 6.3240e-03 0.0000e+00
4.4120e-04 6.4710e-03 0.0000e+00
4.4120e-04 6.6180e-03 0.0000e+00
4.4120e-04 6.7650e-03 0.0000e+00
4.4120e-04 6.9120e-03 0.0000e+00
4.4120e-04 7.0590e-03 0.0000e+00
4.4120e-04 7.2060e-03 0.0000e+00
4.4120e-04 7.3530e-03 0.0000e+00
5.8820e-04 1.4710e-04 0.0000e+00
5.8820e-04 2.9410e-04 0.0000e+00
5.8820e-04 4.4120e-04 0.0000e+00
5.8820e-04 5.8820e-04 0.0000e+00
5.8820e-04 7.3530e-04 0.0000e+00
5.8820e-04 8.8240e-04 0.0000e+00
5.8820e-04 1.0290e-03 0.0000e+00
5.8820e-04 1.1760e-03 0.0000e+00
5.8820e-04 1.3240e-03 0.0000e+00
5.8820e-04 1.4710e-03 0.0000e+00
5.8820e-04 1.6180e-03 0.0000e+00
5.8820e-04 1.7650e-03 0.0000e+00
5.8820e-04 1.9120e-03 0.0000e+00
5.8820e-04 2.0590e-03 0.0000e+00
5.8820e-04 2.2060e-03 0.0000e+00
5.8820e-04 2.3530e-03 0.0000e+00
5.8820e-04 2.5000e-03 0.0000e+00
5.8820e-04 2.6470e-03 0.0000e+00
5.8820e-04 2.7940e-03 0.0000e+00
5.8820e-04 2.9410e-03 0.0000e+00
5.8820e-04 3.0880e-03 0.0000e+00
5.8820e-04 3.2350e-03 0.0000e+00
5.8820e-04 3.3820e-03 0.0000e+00
5.8820e-04 3.5290e-03 0.0000e+00
5.8820e-04 3.6760e-03 0.0000e+00
5.8820e-04 3.8240e-03 0.0000e+00
5.8820e-04 3.9710e-03 0.0000e+00
5.8820e-04 4.1180e-03 0.0000e+00
5.8820e-04 4.2650e-03 0.0000e+00
5.8820e-04 4.4120e-03 0.0000e+00
5.8820e-04 4.5590e-03 0.0000e+00
5.8820e-04 4.7060e-03 0.0000e+00
5.8820e-04 4.8530e-03 0.0000e+00
5.8820e-04 5.0000e-03 0.0000e+00
5.8820e-04 5.1470e-03 0.0000e+00
5.8820e-04 5.2940e-03 0.0000e+00
5.8820e-04 5.4410e-03 0.0000e+00
5.8820e-04 5.5880e-03 0.0000e+00
5.8820e-04 5.7350e-03 0.0000e+00
5.8820e-04 5.8820e-03 0.0000e+00
5.8820e-04 6.0290e-03 0.0000e+00
5.8820e-04 6.1760e-03 0.0000e+00
5.8820e-04 6.3240e-03 0.0000e+00
5.8820e-04 6.4710e-03 0.0000e+00
5.8820e-04 6.6180e-03 0.0000e+00
5.8820e-04 6.7650e-03 0.0000e+00
5.8820e-04 6.9120e-03 0.0000e+00
5.8820e-04 7.0590e-03 0.0000e+00
5.8820e-04 7.2060e-03 0.0000e+00
5.8820e-04 7.3530e-03 0.0000e+00
7.3530e-04 1.4710e-04 0.0000e+00
7.3530e-04 2.9410e-04 0.0000e+00
7.3530e-04 4.4120e-04 0.0000e+00
7.3530e-04 5.8820e-04 0.0000e+00
7.3530e-04 7.3530e-04 0.0000e+00
7.3530e-04 8.8240e-04 0.0000e+00
7.3530e-04 1.0290e-03 0.0000e+00
7.3530e-04 1.1760e-03 0.0000e+00
7.3530e-04 1.3240e-03 0.0000e+00
7.3530e-04 1.4710e-03 0.0000e+00
7.3530e-04 1.6180e-03 0.0000e+00
7.3530e-04 1.7650e-03 0.0000e+00
7.3530e-04 1.9120e-03 0.0000e+00
7.3530e-04 2.0590e-03 0.0000e+00
7.3530e-04 2.2060e-03 0.0000e+00
7.3530e-04 2.3530e-03 0.0000e+00
7.3530e-04 2.5000e-03 0.0000e+00
7.3530e-04 2.6470e-03 0.0000e+00
7.3530e-04 2.7940e-03 0.0000e+00
7.3530e-04 2.9410e-03 0.0000e+00
7.3530e-04 3.0880e-03 0.0000e+00
7.3530e-04 3.2350e-03 0.0000e+00
7.3530e-04 3.3820e-03 0.0000e+00
7.3530e-04 3.5290e-03 0.0000e+00
7.3530e-04 3.6760e-03 0.0000e+00
7.3530e-04 3.8240e-03 0.0000e+00
7.3530e-04 3.9710e-03 0.0000e+00
7.3530e-04 4.1180e-03 0.0000e+00
7.3530e-04 4.2650e-03 0.0000e+00
7.3530e-04 4.4120e-03 0.0000e+00
7.3530e-04 4.5590e-03 0.0000e+00
7.3530e-04 4.7060e-03 0.0000e+00
7.3530e-04 4.8530e-03 0.0000e+00
7.3530e-04 5.0000e-03 0.0000e+00
7.3530e-04 5.1470e-03 0.0000e+00
7.3530e-04 5.2940e-03 0.0000e+00
7.3530e-04 5.4410e-03 0.0000e+00
7.3530e-04 5.5880e-03 0.0000e+00
7.3530e-04 5.7350e-03 0.0000e+00
7.3530e-04 5.8820e-03 0.0000e+00
7.3530e-04 6.0290e-03 0.0000e+00
7.3530e-04 6.1760e-03 0.0000e+00
7.3530e-04 6.3240e-03 0.0000e+00
7.3530e-04 6.4710e-03 0.0000e+00
7.3530e-04 6.6180e-03 0.0000e+00
7.3530e-04 6.7650e-03 0.0000e+00
7.3530e-04 6.9120e-03 0.0000e+00
7.3530e-04 7.0590e-03 0.0000e+00
7.3530e-04 7.2060e-03 0.0000e+00
7.3530e-04 7.3530e-03 0.0000e+00
8.8240e-04 1.4710e-04 0.0000e+00
8.8240e-04 2.9410e-04 0.0000e+00
8.8240e-04 4.4120e-04 0.0000e+00
8.8240e-04 5.8820e-04 0.0000e+00
8.8240e-04 7.3530e-04 0.0000e+00
8.8240e-04 8.8240e-04 0.0000e+00
8.8240e-04 1.0290e-03 0.0000e+00
8.8240e-04 1.1760e-03 0.0000e+00
8.8240e-04 1.3240e-03 0.0000e+00
8.8240e-04 1.4710e-03 0.0000e+00
8.8240e-04 1.6180e-03 0.0000e+00
8.8240e-04 1.7650e-03 0.0000e+00
8.8240e-04 1.9120e-03 0.0000e+00
8.8240e-04 2.0590e-03 0.0000e+00
8.8240e-04 2.2060e-03 0.0000e+00
8.8240e-04 2.3530e-03 0.0000e+00
8.8240e-04 2.5000e-03 0.0000e+00
8.8240e-04 2.6470e-03 0.0000e+00
8.8240e-04 2.7940e-03 0.0000e+00
8.8240e-04 2.9410e-03 0.0000e+00
8.8240e-04 3.0880e-03 0.0000e+00
8.8240e-04 3.2350e-03 0.0000e+00
8.8240e-04 3.3820e-03 0.0000e+00
8.8240e-04 3.5290e-03 0.0000e+00
8.8240e-04 3.6760e-03 0.0000e+00
8.8240e-04 3.8240e-03 0.0000e+00
8.8240e-04 3.9710e-03 0.0000e+00
8.8240e-04 4.1180e-03 0.0000e+00
8.8240e-04 4.2650e-03 0.0000e+00
8.8240e-04 4.4120e-03 0.0000e+00
8.8240e-04 4.5590e-03 0.0000e+00
8.8240e-04 4.7060e-03 0.0000e+00
8.8240e-04 4.8530e-03 0.0000e+00
8.8240e-04 5.0000e-03 0.0000e+00
8.8240e-04 5.1470e-03 0.0000e+00
8.8240e-04 5.2940e-03 0.0000e+00
8.8240e-04 5.4410e-03 0.0000e+00
8.8240e-04 5.5880e-03 0.0000e+00
8.8240e-04 5.7350e-03 0.0000e+00
8.8240e-04 5.8820e-03 0.0000e+00
8.8240e-04 6.0290e-03 0.0000e+00
8.8240e-04 6.1760e-03 0.0000e+00
8.8240e-04 6.3240e-03 0.0000e+00
8.8240e-04 6.4710e-03 0.0000e+00
8.8240e-04 6.6180e-03 0.0000e+00
8.8240e-04 6.7650e-03 0.0000e+00
8.8240e-04 6.9120e-03 0.0000e+00
8.8240e-04 7.0590e-03 0.0000e+00
8.8240e-04 7.2060e-03 0.0000e+00
8.8240e-04 7.3530e-03 0.0000e+00
1.0290e-03 1.4710e-04 0.0000e+00
1.0290e-03 2.9410e-04 0.0000e+00
1.0290e-03 4.4120e-04 0.0000e+00
1.0290e-03 5.8820e-04 0.0000e+00
1.0290e-03 7.3530e-04 0.0000e+00
1.0290e-03 8.8240e-04 0.0000e+00
1.0290e-03 1.0290e-03 0.0000e+00
1.0290e-03 1.1760e-03 0.0000e+00
1.0290e-03 1.3240e-03 0.0000e+00
1.0290e-03 1.4710e-03 0.0000e+00
1.0290e-03 1.6180e-03 0.0000e+00
1.0290e-03 1.7650e-03 0.0000e+00
1.0290e-03 1.9120e-03 0.0000e+00
1.0290e-03 2.0590e-03 0.0000e+00
1.0290e-03 2.2060e-03 0.0000e+00
1.0290e-03 2.3530e-03 0.0000e+00
1.0290e-03 2.5000e-03 0.0000e+00
1.0290e-03 2.6470e-03 0.0000e+00
1.0290e-03 2.7940e-03 0.0000e+00
1.0290e-03 2.9410e-03 0.0000e+00
1.0290e-03 3.0880e-03 0.0000e+00
1.0290e-03 3.2350e-03 0.0000e+00
1.0290e-03 3.3820e-03 0.0000e+00
1.0290e-03 3.5290e-03 0.0000e+00
1.0290e-03 3.6760e-03 0.0000e+00
1.0290e-03 3.8240e-03 0.0000e+00
1.0290e-03 3.9710e-03 0.0000e+00
1.0290e-03 4.1180e-03 0.0000e+00
1.0290e-03 4.2650e-03 0.0000e+00
1.0290e-03 4.4120e-03 0.0000e+00
1.0290e-03 4.5590e-03 0.0000e+00
1.0290e-03 4.7060e-03 0.0000e+00
1.0290e-03 4.8530e-03 0.0000e+00
1.0290e-03 5.0000e-03 0.0000e+00
1.0290e-03 5.1470e-03 0.0000e+00
1.0290e-03 5.2940e-03 0.0000e+00
1.0290e-03 5.4410e-03 0.0000e+00
1.0290e-03 5.5880e-03 0.0000e+00
1.0290e-03 5.7350e-03 0.0000e+00
1.0290e-03 5.8820e-03 0.0000e+00
1.0290e-03 6.0290e-03 0.0000e+00
1.0290e-03 6.1760e-03 0.0000e+00
1.0290e-03 6.3240e-03 0.0000e+00
1.0290e-03 6.4710e-03 0.0000e+00
1.0290e-03 6.6180e-03 0.0000e+00
1.0290e-03 6.7650e-03 0.0000e+00
1.0290e-03 6.9120e-03 0.0000e+00
1.0290e-03 7.0590e-03 0.0000e+00
1.0290e-03 7.2060e-03 0.0000e+00
1.0290e-03 7.3530e-03 0.0000e+00
1.1760e-03 1.4710e-04 0.0000e+00
1.1760e-03 2.9410e-04 0.0000e+00
1.1760e-03 4.4120e-04 0.0000e+00
1.1760e-03 5.8820e-04 0.0000e+00
1.1760e-03 7.3530e-04 0.0000e+00
1.1760e-03 8.8240e-04 0.0000e+00
1.1760e-03 1.0290e-03 0.0000e+00
1.1760e-03 1.1760e-03 0.0000e+00
1.1760e-03 1.3240e-03 0.0000e+00
1.1760e-03 1.4710e-03 0.0000e+00
1.1760e-03 1.6180e-03 0.0000e+00
1.1760e-03 1.7650e-03 0.0000e+00
1.1760e-03 1.9120e-03 0.0000e+00
1.1760e-03 2.0590e-03 0.0000e+00
1.1760e-03 2.2060e-03 0.0000e+00
1.1760e-03 2.3530e-03 0.0000e+00
1.1760e-03 2.5000e-03 0.0000e+00
1.1760e-03 2.6470e-03 0.0000e+00
1.1760e-03 2.7940e-03 0.0000e+00
1.1760e-03 2.9410e-03 0.0000e+00
1.1760e-03 3.0880e-03 0.0000e+00
1.1760e-03 3.2350e-03 0.0000e+00
1.1760e-03 3.3820e-03 0.0000e+00
1.1760e-03 3.5290e-03 0.0000e+00
1.1760e-03 3.6760e-03 0.0000e+00
1.1760e-03 3.8240e-03 0.0000e+00
1.1760e-03 3.9710e-03 0.0000e+00
1.1760e-03 4.1180e-03 0.0000e+00
1.1760e-03 4.2650e-03 0.0000e+00
1.1760e-03 4.4120e-03 0.0000e+00
1.1760e-03 4.5590e-03 0.0000e+00
1.1760e-03 4.7060e-03 0.0000e+00
1.1760e-03 4.8530e-03 0.0000e+00
1.1760e-03 5.0000e-03 0.0000e+00
1.1760e-03 5.1470e-03 0.0000e+00
1.1760e-03 5.2940e-03 0.0000e+00
1.1760e-03 5.4410e-03 0.0000e+00
1.1760e-03 5.5880e-03 0.0000e+00
1.1760e-03 5.7350e-03 0.0000e+00
1.1760e-03 5.8820e-03 0.0000e+00
1.1760e-03 6.0290e-03 0.0000e+00
1.1760e-03 6.1760e-03 0.0000e+00
1.1760e-03 6.3240e-03 0.0000e+00
1.1760e-03 6.4710e-03 0.0000e+00
1.1760e-03 6.6180e-03 0.0000e+00
1.1760e-03 6.7650e-03 0.0000e+00
1.1760e-03 6.9120e-03 0.0000e+00
1.1760e-03 7.0590e-03 0.0000e+00
1.1760e-03 7.2060e-03 0.0000e+00
1.1760e-03 7.3530e-03 0.0000e+00
1.3240e-03 1.4710e-04 0.0000e+00
1.3240e-03 2.9410e-04 0.0000e+00
1.3240e-03 4.4120e-04 0.0000e+00
1.3240e-03 5.8820e-04 0.0000e+00
1.3240e-03 7.3530e-04 0.0000e+00
1.3240e-03 8.8240e-04 0.0000e+00
1.3240e-03 1.0290e-03 0.0000e+00
1.3240e-03 1.1760e-03 0.0000e+00
1.3240e-03 1.3240e-03 0.0000e+00
1.3240e-03 1.4710e-03 0.0000e+00
1.3240e-03 1.6180e-03 0.0000e+00
1.3240e-03 1.7650e-03 0.0000e+00
1.3240e-03 1.9120e-03 0.0000e+00
1.3240e-03 2.0590e-03 0.0000e+00
1.3240e-03 2.2060e-03 0.0000e+00
1.3240e-03 2.3530e-03 0.0000e+00
1.3240e-03 2.5000e-03 0.0000e+00
1.3240e-03 2.6470e-03 0.0000e+00
1.3240e-03 2.7940e-03 0.0000e+00
1.3240e-03 2.9410e-03 0.0000e+00
1.3240e-03 3.0880e-03 0.0000e+00
1.3240e-03 3.2350e-03 0.0000e+00
1.3240e-03 3.3820e-03 0.0000e+00
1.3240e-03 3.5290e-03 0.0000e+00
1.3240e-03 3.6760e-03 0.0000e+00
1.3240e-03 3.8240e-03 0.0000e+00
1.3240e-03 3.9710e-03 0.0000e+00
1.3240e-03 4.1180e-03 0.0000e+00
1.3240e-03 4.2650e-03 0.0000e+00
1.3240e-03 4.4120e-03 0.0000e+00
1.3240e-03 4.5590e-03 0.0000e+00
1.3240e-03 4.7060e-03 0.0000e+00
1.3240e-03 4.8530e-03 0.0000e+00
1.3240e-03 5.0000e-03 0.0000e+00
1.3240e-03 5.1470e-03 0.0000e+00
1.3240e-03 5.2940e-03 0.0000e+00
1.3240e-03 5.4410e-03 0.0000e+00
1.3240e-03 5.5880e-03 0.0000e+00
1.3240e-03 5.7350e-03 0.0000e+00
1.3240e-03 5.8820e-03 0.0000e+00
1.3240e-03 6.0290e-03 0.0000e+00
1.3240e-03 6.1760e-03 0.0000e+00
1.3240e-03 6.3240e-03 0.0000e+00
1.3240e-03 6.4710e-03 0.0000e+00
1.3240e-03 6.6180e-03 0.0000e+00
1.3240e-03 6.7650e-03 0.0000e+00
1.3240e-03 6.9120e-03 0.0000e+00
1.3240e-03 7.0590e-03 0.0000e+00
1.3240e-03 7.2060e-03 0.0000e+00
1.3240e-03 7.3530e-03 0.0000e+00
1.4710e-03 1.4710e-04 0.0000e+00
1.4710e-03 2.9410e-04 0.0000e+00
1.4710e-03 4.4120e-04 0.0000e+00
1.4710e-03 5.8820e-04 0.0000e+00
1.4710e-03 7.3530e-04 0.0000e+00
1.4710e-03 8.8240e-04 0.0000e+00
1.4710e-03 1.0290e-03 0.0000e+00
1.4710e-03 1.1760e-03 0.0000e+00
1.4710e-03 1.3240e-03 0.0000e+00
1.4710e-03 1.4710e-03 0.0000e+00
1.4710e-03 1.6180e-03 0.0000e+00
1.4710e-03 1.7650e-03 0.0000e+00
1.4710e-03 1.9120e-03 0.0000e+00
1.4710e-03 2.0590e-03 0.0000e+00
1.4710e-03 2.2060e-03 0.0000e+00
1.4710e-03 2.3530e-03 0.0000e+00
1.4710e-03 2.5000e-03 0.0000e+00
1.4710e-03 2.6470e-03 0.0000e+00