# vtk DataFile Version 3.0
VTK Example
ASCII
DATASET UNSTRUCTURED_GRID
POINTS 827 float 
0.000147247 0.000144891 0.0
0.000294081 0.000144835 0.0
0.000441418 0.000144785 0.0
0.000588622 0.000144817 0.0
0.000735816 0.000144819 0.0
0.000882989 0.000144818 0.0
0.00103017 0.000144817 0.0
0.00117734 0.000144808 0.0
0.00132451 0.000144807 0.0
0.00147169 0.000144801 0.0
0.00161884 0.000144817 0.0
0.00176602 0.000144762 0.0
0.00191322 0.000144808 0.0
0.00206033 0.000144824 0.0
0.0022074 0.00014479 0.0
0.00235471 0.000144469 0.0
0.0025042 0.000142678 0.0
0.00265792 0.000137935 0.0
0.00283232 0.000117856 0.0
0.00297487 0.000119974 0.0
0.00014737 0.000290244 0.0
0.000294306 0.000290606 0.0
0.000441749 0.000290726 0.0
0.000589063 0.000290732 0.0
0.00073637 0.000290756 0.0
0.000883664 0.00029076 0.0
0.00103095 0.000290761 0.0
0.00117824 0.00029076 0.0
0.00132553 0.000290762 0.0
0.00147281 0.000290771 0.0
0.00162012 0.000290785 0.0
0.00176736 0.000290801 0.0
0.00191453 0.000290832 0.0
0.00206193 0.000290756 0.0
0.00221065 0.000289534 0.0
0.0023628 0.000286607 0.0
0.00252088 0.000280693 0.0
0.00268863 0.000267642 0.0
0.00285757 0.000242501 0.0
0.00299904 0.00022219 0.0
0.000147306 0.000436909 0.0
0.000294757 0.000436871 0.0
0.000442091 0.00043693 0.0
0.000589537 0.000436965 0.0
0.000736948 0.00043698 0.0
0.000884365 0.000436991 0.0
0.00103177 0.000436996 0.0
0.00117918 0.000436994 0.0
0.00132658 0.000437003 0.0
0.00147398 0.000437021 0.0
0.00162133 0.000437058 0.0
0.00176878 0.000437016 0.0
0.00191722 0.000436153 0.0
0.00206923 0.00043298 0.0
0.00222624 0.000428075 0.0
0.00238774 0.000419948 0.0
0.00255242 0.000408792 0.0
0.00271781 0.000391505 0.0
0.0028774 0.000371881 0.0
0.0030373 0.000346932 0.0
0.0031551 0.000374951 0.0
0.000147495 0.000583134 0.0
0.000294951 0.000583183 0.0
0.000442487 0.000583173 0.0
0.000589985 0.000583192 0.0
0.000737534 0.000583188 0.0
0.00088508 0.000583203 0.0
0.00103263 0.000583197 0.0
0.0011802 0.000583189 0.0
0.00132777 0.00058319 0.0
0.00147543 0.000583136 0.0
0.00162373 0.000582613 0.0
0.00177477 0.000580105 0.0
0.00193143 0.000574593 0.0
0.00209186 0.000567786 0.0
0.00225366 0.000558866 0.0
0.00241544 0.000548806 0.0
0.00257551 0.000536539 0.0
0.0027312 0.000524461 0.0
0.00288444 0.00051144 0.0
0.00303234 0.000498798 0.0
0.00316327 0.000494001 0.0
0.000147607 0.000729273 0.0
0.000295232 0.000729228 0.0
0.000442861 0.00072922 0.0
0.000590572 0.00072917 0.0
0.000738293 0.000729149 0.0
0.000886091 0.00072908 0.0
0.00103392 0.000729093 0.0
0.0011818 0.000728974 0.0
0.00133015 0.00072856 0.0
0.00148041 0.000726761 0.0
0.00163572 0.000721823 0.0
0.00179638 0.000714685 0.0
0.00195728 0.000706461 0.0
0.00211755 0.00069792 0.0
0.00227659 0.000689142 0.0
0.00243381 0.000679554 0.0
0.00258821 0.000670299 0.0
0.00274023 0.000661356 0.0
0.002891 0.000652002 0.0
0.00304145 0.000641211 0.0
0.00319634 0.000622599 0.0
0.0033099 0.000653809 0.0
0.000147787 0.000875014 0.0
0.000295623 0.000874979 0.0
0.000443529 0.000874854 0.0
0.000591495 0.000874735 0.0
0.000739582 0.0008746 0.0
0.000887715 0.000874465 0.0
0.00103625 0.000874035 0.0
0.00118611 0.000872806 0.0
0.00134007 0.000868479 0.0
0.00149991 0.0008619 0.0
0.00166152 0.000853291 0.0
0.00182097 0.000845144 0.0
0.00197943 0.000837248 0.0
0.00213622 0.000829505 0.0
0.0022916 0.000821715 0.0
0.00244504 0.000814243 0.0
0.00259684 0.000806968 0.0
0.00274701 0.000799987 0.0
0.00289601 0.000793189 0.0
0.00304497 0.000784586 0.0
0.00319015 0.000775515 0.0
0.00331671 0.000773289 0.0
0.000148117 0.00102032 0.0
0.0002963 0.00102009 0.0
0.000444603 0.0010199 0.0
0.000593025 0.00101959 0.0
0.000741737 0.00101914 0.0
0.000891537 0.00101799 0.0
0.00104437 0.00101469 0.0
0.00120291 0.00100836 0.0
0.00136454 0.00100034 0.0
0.00152464 0.000991309 0.0
0.00168268 0.000983947 0.0
0.00183956 0.000976544 0.0
0.0019948 0.000969742 0.0
0.00214898 0.000963077 0.0
0.00230165 0.000956808 0.0
0.00245317 0.000950775 0.0
0.00260345 0.000944976 0.0
0.00275279 0.000939294 0.0
0.00290116 0.000933638 0.0
0.00304966 0.000927158 0.0
0.00319758 0.000918936 0.0
0.00335083 0.000900743 0.0
0.00346097 0.000931817 0.0
0.000148764 0.00116468 0.0
0.000297441 0.00116442 0.0
0.000446444 0.00116374 0.0
0.000596319 0.00116271 0.0
0.000748501 0.00115989 0.0
0.000905333 0.00115442 0.0
0.00106648 0.00114649 0.0
0.00122709 0.0011376 0.0
0.00138576 0.00112934 0.0
0.00154267 0.00112231 0.0
0.00169827 0.00111549 0.0
0.00185259 0.0011095 0.0
0.00200593 0.00110362 0.0
0.00215802 0.00109828 0.0
0.00230925 0.00109315 0.0
0.00245947 0.00108832 0.0
0.00260895 0.0010836 0.0
0.00275761 0.00107895 0.0
0.00290558 0.00107433 0.0
0.00305283 0.00106974 0.0
0.0032017 0.00106247 0.0
0.00334994 0.00105696 0.0
0.0034971 0.00104522 0.0
0.000149948 0.00130745 0.0
0.000300168 0.00130651 0.0
0.000451967 0.00130423 0.0
0.000607452 0.00129928 0.0
0.000767153 0.00129227 0.0
0.000928094 0.00128297 0.0
0.00108739 0.00127438 0.0
0.00124515 0.00126661 0.0
0.00140113 0.00125994 0.0
0.00155596 0.00125379 0.0
0.00170961 0.0012484 0.0
0.00186232 0.00124326 0.0
0.00201404 0.00123869 0.0
0.00216499 0.00123431 0.0
0.00231511 0.00123028 0.0
0.0024646 0.00122638 0.0
0.00261341 0.00122261 0.0
0.00276164 0.00121887 0.0
0.00290924 0.00121516 0.0
0.00305628 0.00121146 0.0
0.00320408 0.00120868 0.0
0.00335446 0.00120524 0.0
0.00351876 0.00121498 0.0
0.000153356 0.0014454 0.0
0.000308394 0.0014425 0.0
0.000466548 0.00143622 0.0
0.000626753 0.00142772 0.0
0.000786993 0.00141823 0.0
0.000945728 0.00141006 0.0
0.00110281 0.00140259 0.0
0.00125823 0.00139651 0.0
0.00141257 0.00139097 0.0
0.00156574 0.00138623 0.0
0.00171805 0.00138181 0.0
0.00186948 0.00137795 0.0
0.00202021 0.00137429 0.0
0.00217024 0.00137099 0.0
0.00231971 0.00136782 0.0
0.0024686 0.00136482 0.0
0.00261699 0.00136188 0.0
0.00276484 0.00135898 0.0
0.0029122 0.0013561 0.0
0.00305902 0.00135323 0.0
0.0032046 0.00135044 0.0
0.00335268 0.00134767 0.0
0.00349029 0.00134547 0.0
0.000159708 0.00157462 0.0
0.000320735 0.00156862 0.0
0.000482333 0.00156048 0.0
0.000642999 0.0015514 0.0
0.000801646 0.00154364 0.0
0.000958506 0.00153683 0.0
0.00111377 0.00153146 0.0
0.00126781 0.00152662 0.0
0.00142074 0.00152268 0.0
0.00157282 0.00151903 0.0
0.00172408 0.00151592 0.0
0.00187469 0.001513 0.0
0.00202467 0.00151043 0.0
0.00217414 0.00150796 0.0
0.0023231 0.00150569 0.0
0.00247161 0.00150347 0.0
0.00261966 0.00150134 0.0
0.00276726 0.00149923 0.0
0.0029144 0.00149713 0.0
0.00306109 0.00149507 0.0
0.00320835 0.00149211 0.0
0.0033551 0.00148838 0.0
0.00351241 0.00147471 0.0
0.00361715 0.00150579 0.0
0.000166176 0.00169326 0.0
0.000331331 0.00168763 0.0
0.000494069 0.00168037 0.0
0.000653974 0.00167405 0.0
0.000811461 0.00166839 0.0
0.000967004 0.00166407 0.0
0.00112113 0.00166026 0.0
0.00127411 0.00165731 0.0
0.00142617 0.00165457 0.0
0.00157745 0.00165237 0.0
0.00172807 0.00165026 0.0
0.00187811 0.00164848 0.0
0.00202764 0.00164676 0.0
0.00217672 0.00164523 0.0
0.00232536 0.00164372 0.0
0.00247361 0.00164232 0.0
0.00262144 0.00164093 0.0
0.00276888 0.00163957 0.0
0.00291588 0.00163824 0.0
0.00306246 0.00163691 0.0
0.0032086 0.00163566 0.0
0.00335627 0.00163171 0.0
0.00349942 0.00162793 0.0
0.00363594 0.00161862 0.0
0.000169974 0.00180549 0.0
0.000337195 0.00180219 0.0
0.000500299 0.00179897 0.0
0.000659798 0.0017957 0.0
0.00081663 0.00179333 0.0
0.000971513 0.00179109 0.0
0.00112501 0.00178953 0.0
0.00127742 0.001788 0.0
0.001429 0.00178692 0.0
0.00157984 0.00178579 0.0
0.00173013 0.00178495 0.0
0.00187986 0.00178406 0.0
0.00202917 0.00178334 0.0
0.00217803 0.00178258 0.0
0.00232652 0.00178192 0.0
0.00247461 0.00178124 0.0
0.00262235 0.00178061 0.0
0.00276968 0.00177999 0.0
0.00291663 0.00177938 0.0
0.00306314 0.00177882 0.0
0.00320926 0.00177825 0.0
0.00335424 0.00177778 0.0
0.00349927 0.00177731 0.0
0.00362957 0.00177698 0.0
0.000170438 0.00191465 0.0
0.000337946 0.00191581 0.0
0.00050109 0.00191655 0.0
0.000660583 0.00191754 0.0
0.000817281 0.0019179 0.0
0.000972112 0.00191847 0.0
0.00112547 0.00191863 0.0
0.00127782 0.00191905 0.0
0.00142927 0.00191918 0.0
0.00158009 0.00191949 0.0
0.00173028 0.0019196 0.0
0.00188001 0.00191982 0.0
0.00202924 0.0019199 0.0
0.00217812 0.00192005 0.0
0.00232655 0.00192012 0.0
0.00247466 0.00192023 0.0
0.00262235 0.00192031 0.0
0.0027697 0.00192042 0.0
0.00291661 0.00192055 0.0
0.00306315 0.0019207 0.0
0.00320925 0.00192089 0.0
0.00335685 0.00192377 0.0
0.00349957 0.00192671 0.0
0.00364043 0.00193624 0.0
0.000167784 0.0020257 0.0
0.000333728 0.00202968 0.0
0.000496649 0.00203492 0.0
0.000656319 0.0020391 0.0
0.000813553 0.00204289 0.0
0.000968751 0.00204552 0.0
0.00112261 0.00204803 0.0
0.00127523 0.00204984 0.0
0.00142709 0.00205164 0.0
0.00157811 0.00205298 0.0
0.00172861 0.00205437 0.0
0.00187848 0.00205544 0.0
0.00202795 0.00205654 0.0
0.0021769 0.00205744 0.0
0.00232552 0.00205835 0.0
0.00247368 0.00205917 0.0
0.0026215 0.00206001 0.0
0.00276888 0.00206085 0.0
0.00291589 0.0020617 0.0
0.00306246 0.00206259 0.0
0.00320953 0.00206438 0.0
0.0033547 0.00206709 0.0
0.00351122 0.00208143 0.0
0.00361547 0.00205114 0.0
0.000162313 0.00214147 0.0
0.000324967 0.00214719 0.0
0.000486853 0.00215417 0.0
0.000647184 0.00216167 0.0
0.000805281 0.00216759 0.0
0.000961628 0.00217297 0.0
0.00111621 0.00217704 0.0
0.00126977 0.00218079 0.0
0.00142222 0.00218369 0.0
0.00157401 0.00218654 0.0
0.00172492 0.00218882 0.0
0.00187537 0.00219107 0.0
0.00202513 0.00219295 0.0
0.00217451 0.0021948 0.0
0.00232332 0.00219645 0.0
0.00247178 0.00219808 0.0
0.00261972 0.00219965 0.0
0.00276731 0.00220122 0.0
0.0029144 0.00220282 0.0
0.00306111 0.00220443 0.0
0.00320619 0.00220608 0.0
0.00335661 0.00221042 0.0
0.00348863 0.00221117 0.0
0.00363508 0.00220659 0.0
0.000155858 0.0022666 0.0
0.000313241 0.00227026 0.0
0.000472685 0.00227715 0.0
0.00063296 0.00228479 0.0
0.000792666 0.00229307 0.0
0.000950294 0.00230004 0.0
0.00110643 0.00230633 0.0
0.00126108 0.00231113 0.0
0.00141481 0.0023158 0.0
0.00156737 0.00231955 0.0
0.00171935 0.0023232 0.0
0.00187038 0.00232627 0.0
0.00202093 0.00232926 0.0
[...]
POINT_DATA 827
VECTORS Position float
1.4725e-04 1.4489e-04 0.0000e+00
2.9408e-04 1.4483e-04 0.0000e+00
4.4142e-04 1.4479e-04 0.0000e+00
5.8862e-04 1.4482e-04 0.0000e+00
7.3582e-04 1.4482e-04 0.0000e+00
8.8299e-04 1.4482e-04 0.0000e+00
1.0302e-03 1.4482e-04 0.0000e+00
1.1773e-03 1.4481e-04 0.0000e+00
1.3245e-03 1.4481e-04 0.0000e+00
1.4717e-03 1.4480e-04 0.0000e+00
1.6188e-03 1.4482e-04 0.0000e+00
1.7660e-03 1.4476e-04 0.0000e+00
1.9132e-03 1.4481e-04 0.0000e+00
2.0603e-03 1.4482e-04 0.0000e+00
2.2074e-03 1.4479e-04 0.0000e+00
2.3547e-03 1.4447e-04 0.0000e+00
2.5042e-03 1.4268e-04 0.0000e+00
2.6579e-03 1.3794e-04 0.0000e+00
2.8323e-03 1.1786e-04 0.0000e+00
2.9749e-03 1.1997e-04 0.0000e+00
1.4737e-04 2.9024e-04 0.0000e+00
2.9431e-04 2.9061e-04 0.0000e+00
4.4175e-04 2.9073e-04 0.0000e+00
5.8906e-04 2.9073e-04 0.0000e+00
7.3637e-04 2.9076e-04 0.0000e+00
8.8366e-04 2.9076e-04 0.0000e+00
1.0310e-03 2.9076e-04 0.0000e+00
1.1782e-03 2.9076e-04 0.0000e+00
1.3255e-03 2.9076e-04 0.0000e+00
1.4728e-03 2.9077e-04 0.0000e+00
1.6201e-03 2.9078e-04 0.0000e+00
1.7674e-03 2.9080e-04 0.0000e+00
1.9145e-03 2.9083e-04 0.0000e+00
2.0619e-03 2.9076e-04 0.0000e+00
2.2106e-03 2.8953e-04 0.0000e+00
2.3628e-03 2.8661e-04 0.0000e+00
2.5209e-03 2.8069e-04 0.0000e+00
2.6886e-03 2.6764e-04 0.0000e+00
2.8576e-03 2.4250e-04 0.0000e+00
2.9990e-03 2.2219e-04 0.0000e+00
1.4731e-04 4.3691e-04 0.0000e+00
2.9476e-04 4.3687e-04 0.0000e+00
4.4209e-04 4.3693e-04 0.0000e+00
5.8954e-04 4.3697e-04 0.0000e+00
7.3695e-04 4.3698e-04 0.0000e+00
8.8436e-04 4.3699e-04 0.0000e+00
1.0318e-03 4.3700e-04 0.0000e+00
1.1792e-03 4.3699e-04 0.0000e+00
1.3266e-03 4.3700e-04 0.0000e+00
1.4740e-03 4.3702e-04 0.0000e+00
1.6213e-03 4.3706e-04 0.0000e+00
1.7688e-03 4.3702e-04 0.0000e+00
1.9172e-03 4.3615e-04 0.0000e+00
2.0692e-03 4.3298e-04 0.0000e+00
2.2262e-03 4.2807e-04 0.0000e+00
2.3877e-03 4.1995e-04 0.0000e+00
2.5524e-03 4.0879e-04 0.0000e+00
2.7178e-03 3.9151e-04 0.0000e+00
2.8774e-03 3.7188e-04 0.0000e+00
3.0373e-03 3.4693e-04 0.0000e+00
3.1551e-03 3.7495e-04 0.0000e+00
1.4749e-04 5.8313e-04 0.0000e+00
2.9495e-04 5.8318e-04 0.0000e+00
4.4249e-04 5.8317e-04 0.0000e+00
5.8998e-04 5.8319e-04 0.0000e+00
7.3753e-04 5.8319e-04 0.0000e+00
8.8508e-04 5.8320e-04 0.0000e+00
1.0326e-03 5.8320e-04 0.0000e+00
1.1802e-03 5.8319e-04 0.0000e+00
1.3278e-03 5.8319e-04 0.0000e+00
1.4754e-03 5.8314e-04 0.0000e+00
1.6237e-03 5.8261e-04 0.0000e+00
1.7748e-03 5.8010e-04 0.0000e+00
1.9314e-03 5.7459e-04 0.0000e+00
2.0919e-03 5.6779e-04 0.0000e+00
2.2537e-03 5.5887e-04 0.0000e+00
2.4154e-03 5.4881e-04 0.0000e+00
2.5755e-03 5.3654e-04 0.0000e+00
2.7312e-03 5.2446e-04 0.0000e+00
2.8844e-03 5.1144e-04 0.0000e+00
3.0323e-03 4.9880e-04 0.0000e+00
3.1633e-03 4.9400e-04 0.0000e+00
1.4761e-04 7.2927e-04 0.0000e+00
2.9523e-04 7.2923e-04 0.0000e+00
4.4286e-04 7.2922e-04 0.0000e+00
5.9057e-04 7.2917e-04 0.0000e+00
7.3829e-04 7.2915e-04 0.0000e+00
8.8609e-04 7.2908e-04 0.0000e+00
1.0339e-03 7.2909e-04 0.0000e+00
1.1818e-03 7.2897e-04 0.0000e+00
1.3302e-03 7.2856e-04 0.0000e+00
1.4804e-03 7.2676e-04 0.0000e+00
1.6357e-03 7.2182e-04 0.0000e+00
1.7964e-03 7.1469e-04 0.0000e+00
1.9573e-03 7.0646e-04 0.0000e+00
2.1175e-03 6.9792e-04 0.0000e+00
2.2766e-03 6.8914e-04 0.0000e+00
2.4338e-03 6.7955e-04 0.0000e+00
2.5882e-03 6.7030e-04 0.0000e+00
2.7402e-03 6.6136e-04 0.0000e+00
2.8910e-03 6.5200e-04 0.0000e+00
3.0415e-03 6.4121e-04 0.0000e+00
3.1963e-03 6.2260e-04 0.0000e+00
3.3099e-03 6.5381e-04 0.0000e+00
1.4779e-04 8.7501e-04 0.0000e+00
2.9562e-04 8.7498e-04 0.0000e+00
4.4353e-04 8.7485e-04 0.0000e+00
5.9150e-04 8.7474e-04 0.0000e+00
7.3958e-04 8.7460e-04 0.0000e+00
8.8772e-04 8.7446e-04 0.0000e+00
1.0362e-03 8.7403e-04 0.0000e+00
1.1861e-03 8.7281e-04 0.0000e+00
1.3401e-03 8.6848e-04 0.0000e+00
1.4999e-03 8.6190e-04 0.0000e+00
1.6615e-03 8.5329e-04 0.0000e+00
1.8210e-03 8.4514e-04 0.0000e+00
1.9794e-03 8.3725e-04 0.0000e+00
2.1362e-03 8.2951e-04 0.0000e+00
2.2916e-03 8.2172e-04 0.0000e+00
2.4450e-03 8.1424e-04 0.0000e+00
2.5968e-03 8.0697e-04 0.0000e+00
2.7470e-03 7.9999e-04 0.0000e+00
2.8960e-03 7.9319e-04 0.0000e+00
3.0450e-03 7.8459e-04 0.0000e+00
3.1901e-03 7.7551e-04 0.0000e+00
3.3167e-03 7.7329e-04 0.0000e+00
1.4812e-04 1.0203e-03 0.0000e+00
2.9630e-04 1.0201e-03 0.0000e+00
4.4460e-04 1.0199e-03 0.0000e+00
5.9303e-04 1.0196e-03 0.0000e+00
7.4174e-04 1.0191e-03 0.0000e+00
8.9154e-04 1.0180e-03 0.0000e+00
1.0444e-03 1.0147e-03 0.0000e+00
1.2029e-03 1.0084e-03 0.0000e+00
1.3645e-03 1.0003e-03 0.0000e+00
1.5246e-03 9.9131e-04 0.0000e+00
1.6827e-03 9.8395e-04 0.0000e+00
1.8396e-03 9.7654e-04 0.0000e+00
1.9948e-03 9.6974e-04 0.0000e+00
2.1490e-03 9.6308e-04 0.0000e+00
2.3016e-03 9.5681e-04 0.0000e+00
2.4532e-03 9.5077e-04 0.0000e+00
2.6035e-03 9.4498e-04 0.0000e+00
2.7528e-03 9.3929e-04 0.0000e+00
2.9012e-03 9.3364e-04 0.0000e+00
3.0497e-03 9.2716e-04 0.0000e+00
3.1976e-03 9.1894e-04 0.0000e+00
3.3508e-03 9.0074e-04 0.0000e+00
3.4610e-03 9.3182e-04 0.0000e+00
1.4876e-04 1.1647e-03 0.0000e+00
2.9744e-04 1.1644e-03 0.0000e+00
4.4644e-04 1.1637e-03 0.0000e+00
5.9632e-04 1.1627e-03 0.0000e+00
7.4850e-04 1.1599e-03 0.0000e+00
9.0533e-04 1.1544e-03 0.0000e+00
1.0665e-03 1.1465e-03 0.0000e+00
1.2271e-03 1.1376e-03 0.0000e+00
1.3858e-03 1.1293e-03 0.0000e+00
1.5427e-03 1.1223e-03 0.0000e+00
1.6983e-03 1.1155e-03 0.0000e+00
1.8526e-03 1.1095e-03 0.0000e+00
2.0059e-03 1.1036e-03 0.0000e+00
2.1580e-03 1.0983e-03 0.0000e+00
2.3093e-03 1.0932e-03 0.0000e+00
2.4595e-03 1.0883e-03 0.0000e+00
2.6089e-03 1.0836e-03 0.0000e+00
2.7576e-03 1.0789e-03 0.0000e+00
2.9056e-03 1.0743e-03 0.0000e+00
3.0528e-03 1.0697e-03 0.0000e+00
3.2017e-03 1.0625e-03 0.0000e+00
3.3499e-03 1.0570e-03 0.0000e+00
3.4971e-03 1.0452e-03 0.0000e+00
1.4995e-04 1.3075e-03 0.0000e+00
3.0017e-04 1.3065e-03 0.0000e+00
4.5197e-04 1.3042e-03 0.0000e+00
6.0745e-04 1.2993e-03 0.0000e+00
7.6715e-04 1.2923e-03 0.0000e+00
9.2809e-04 1.2830e-03 0.0000e+00
1.0874e-03 1.2744e-03 0.0000e+00
1.2451e-03 1.2666e-03 0.0000e+00
1.4011e-03 1.2599e-03 0.0000e+00
1.5560e-03 1.2538e-03 0.0000e+00
1.7096e-03 1.2484e-03 0.0000e+00
1.8623e-03 1.2433e-03 0.0000e+00
2.0140e-03 1.2387e-03 0.0000e+00
2.1650e-03 1.2343e-03 0.0000e+00
2.3151e-03 1.2303e-03 0.0000e+00
2.4646e-03 1.2264e-03 0.0000e+00
2.6134e-03 1.2226e-03 0.0000e+00
2.7616e-03 1.2189e-03 0.0000e+00
2.9092e-03 1.2152e-03 0.0000e+00
3.0563e-03 1.2115e-03 0.0000e+00
3.2041e-03 1.2087e-03 0.0000e+00
3.3545e-03 1.2052e-03 0.0000e+00
3.5188e-03 1.2150e-03 0.0000e+00
1.5336e-04 1.4454e-03 0.0000e+00
3.0839e-04 1.4425e-03 0.0000e+00
4.6655e-04 1.4362e-03 0.0000e+00
6.2675e-04 1.4277e-03 0.0000e+00
7.8699e-04 1.4182e-03 0.0000e+00
9.4573e-04 1.4101e-03 0.0000e+00
1.1028e-03 1.4026e-03 0.0000e+00
1.2582e-03 1.3965e-03 0.0000e+00
1.4126e-03 1.3910e-03 0.0000e+00
1.5657e-03 1.3862e-03 0.0000e+00
1.7181e-03 1.3818e-03 0.0000e+00
1.8695e-03 1.3779e-03 0.0000e+00
2.0202e-03 1.3743e-03 0.0000e+00
2.1702e-03 1.3710e-03 0.0000e+00
2.3197e-03 1.3678e-03 0.0000e+00
2.4686e-03 1.3648e-03 0.0000e+00
2.6170e-03 1.3619e-03 0.0000e+00
2.7648e-03 1.3590e-03 0.0000e+00
2.9122e-03 1.3561e-03 0.0000e+00
3.0590e-03 1.3532e-03 0.0000e+00
3.2046e-03 1.3504e-03 0.0000e+00
3.3527e-03 1.3477e-03 0.0000e+00
3.4903e-03 1.3455e-03 0.0000e+00
1.5971e-04 1.5746e-03 0.0000e+00
3.2073e-04 1.5686e-03 0.0000e+00
4.8233e-04 1.5605e-03 0.0000e+00
6.4300e-04 1.5514e-03 0.0000e+00
8.0165e-04 1.5436e-03 0.0000e+00
9.5851e-04 1.5368e-03 0.0000e+00
1.1138e-03 1.5315e-03 0.0000e+00
1.2678e-03 1.5266e-03 0.0000e+00
1.4207e-03 1.5227e-03 0.0000e+00
1.5728e-03 1.5190e-03 0.0000e+00
1.7241e-03 1.5159e-03 0.0000e+00
1.8747e-03 1.5130e-03 0.0000e+00
2.0247e-03 1.5104e-03 0.0000e+00
2.1741e-03 1.5080e-03 0.0000e+00
2.3231e-03 1.5057e-03 0.0000e+00
2.4716e-03 1.5035e-03 0.0000e+00
2.6197e-03 1.5013e-03 0.0000e+00
2.7673e-03 1.4992e-03 0.0000e+00
2.9144e-03 1.4971e-03 0.0000e+00
3.0611e-03 1.4951e-03 0.0000e+00
3.2084e-03 1.4921e-03 0.0000e+00
3.3551e-03 1.4884e-03 0.0000e+00
3.5124e-03 1.4747e-03 0.0000e+00
3.6171e-03 1.5058e-03 0.0000e+00
1.6618e-04 1.6933e-03 0.0000e+00
3.3133e-04 1.6876e-03 0.0000e+00
4.9407e-04 1.6804e-03 0.0000e+00
6.5397e-04 1.6740e-03 0.0000e+00
8.1146e-04 1.6684e-03 0.0000e+00
9.6700e-04 1.6641e-03 0.0000e+00
1.1211e-03 1.6603e-03 0.0000e+00
1.2741e-03 1.6573e-03 0.0000e+00
1.4262e-03 1.6546e-03 0.0000e+00
1.5775e-03 1.6524e-03 0.0000e+00
1.7281e-03 1.6503e-03 0.0000e+00
1.8781e-03 1.6485e-03 0.0000e+00
2.0276e-03 1.6468e-03 0.0000e+00
2.1767e-03 1.6452e-03 0.0000e+00
2.3254e-03 1.6437e-03 0.0000e+00
2.4736e-03 1.6423e-03 0.0000e+00
2.6214e-03 1.6409e-03 0.0000e+00
2.7689e-03 1.6396e-03 0.0000e+00
2.9159e-03 1.6382e-03 0.0000e+00
3.0625e-03 1.6369e-03 0.0000e+00
3.2086e-03 1.6357e-03 0.0000e+00
3.3563e-03 1.6317e-03 0.0000e+00
3.4994e-03 1.6279e-03 0.0000e+00
3.6359e-03 1.6186e-03 0.0000e+00
1.6997e-04 1.8055e-03 0.0000e+00
3.3719e-04 1.8022e-03 0.0000e+00
5.0030e-04 1.7990e-03 0.0000e+00
6.5980e-04 1.7957e-03 0.0000e+00
8.1663e-04 1.7933e-03 0.0000e+00
9.7151e-04 1.7911e-03 0.0000e+00
1.1250e-03 1.7895e-03 0.0000e+00
1.2774e-03 1.7880e-03 0.0000e+00
1.4290e-03 1.7869e-03 0.0000e+00
1.5798e-03 1.7858e-03 0.0000e+00
1.7301e-03 1.7850e-03 0.0000e+00
1.8799e-03 1.7841e-03 0.0000e+00
2.0292e-03 1.7833e-03 0.0000e+00
2.1780e-03 1.7826e-03 0.0000e+00
2.3265e-03 1.7819e-03 0.0000e+00
2.4746e-03 1.7812e-03 0.0000e+00
2.6224e-03 1.7806e-03 0.0000e+00
2.7697e-03 1.7800e-03 0.0000e+00
2.9166e-03 1.7794e-03 0.0000e+00
3.0631e-03 1.7788e-03 0.0000e+00
3.2093e-03 1.7783e-03 0.0000e+00
3.3542e-03 1.7778e-03 0.0000e+00
3.4993e-03 1.7773e-03 0.0000e+00
3.6296e-03 1.7770e-03 0.0000e+00
1.7044e-04 1.9147e-03 0.0000e+00
3.3795e-04 1.9158e-03 0.0000e+00
5.0109e-04 1.9165e-03 0.0000e+00
6.6058e-04 1.9175e-03 0.0000e+00
8.1728e-04 1.9179e-03 0.0000e+00
9.7211e-04 1.9185e-03 0.0000e+00
1.1255e-03 1.9186e-03 0.0000e+00
1.2778e-03 1.9190e-03 0.0000e+00
1.4293e-03 1.9192e-03 0.0000e+00
1.5801e-03 1.9195e-03 0.0000e+00
1.7303e-03 1.9196e-03 0.0000e+00
1.8800e-03 1.9198e-03 0.0000e+00
2.0292e-03 1.9199e-03 0.0000e+00
2.1781e-03 1.9201e-03 0.0000e+00
2.3266e-03 1.9201e-03 0.0000e+00
2.4747e-03 1.9202e-03 0.0000e+00
2.6223e-03 1.9203e-03 0.0000e+00
2.7697e-03 1.9204e-03 0.0000e+00
2.9166e-03 1.9206e-03 0.0000e+00
3.0632e-03 1.9207e-03 0.0000e+00
3.2093e-03 1.9209e-03 0.0000e+00
3.3569e-03 1.9238e-03 0.0000e+00
3.4996e-03 1.9267e-03 0.0000e+00
3.6404e-03 1.9362e-03 0.0000e+00
1.6778e-04 2.0257e-03 0.0000e+00
3.3373e-04 2.0297e-03 0.0000e+00
4.9665e-04 2.0349e-03 0.0000e+00
6.5632e-04 2.0391e-03 0.0000e+00
8.1355e-04 2.0429e-03 0.0000e+00
9.6875e-04 2.0455e-03 0.0000e+00
1.1226e-03 2.0480e-03 0.0000e+00
1.2752e-03 2.0498e-03 0.0000e+00
1.4271e-03 2.0516e-03 0.0000e+00
1.5781e-03 2.0530e-03 0.0000e+00
1.7286e-03 2.0544e-03 0.0000e+00
1.8785e-03 2.0554e-03 0.0000e+00
2.0280e-03 2.0565e-03 0.0000e+00
2.1769e-03 2.0574e-03 0.0000e+00
2.3255e-03 2.0584e-03 0.0000e+00
2.4737e-03 2.0592e-03 0.0000e+00
2.6215e-03 2.0600e-03 0.0000e+00
2.7689e-03 2.0608e-03 0.0000e+00
2.9159e-03 2.0617e-03 0.0000e+00
3.0625e-03 2.0626e-03 0.0000e+00
3.2095e-03 2.0644e-03 0.0000e+00
3.3547e-03 2.0671e-03 0.0000e+00
3.5112e-03 2.0814e-03 0.0000e+00
3.6155e-03 2.0511e-03 0.0000e+00
1.6231e-04 2.1415e-03 0.0000e+00
3.2497e-04 2.1472e-03 0.0000e+00
4.8685e-04 2.1542e-03 0.0000e+00
6.4718e-04 2.1617e-03 0.0000e+00
8.0528e-04 2.1676e-03 0.0000e+00
9.6163e-04 2.1730e-03 0.0000e+00
1.1162e-03 2.1770e-03 0.0000e+00
1.2698e-03 2.1808e-03 0.0000e+00
1.4222e-03 2.1837e-03 0.0000e+00
1.5740e-03 2.1865e-03 0.0000e+00
1.7249e-03 2.1888e-03 0.0000e+00
1.8754e-03 2.1911e-03 0.0000e+00
2.0251e-03 2.1930e-03 0.0000e+00
2.1745e-03 2.1948e-03 0.0000e+00
2.3233e-03 2.1964e-03 0.0000e+00
2.4718e-03 2.1981e-03 0.0000e+00
2.6197e-03 2.1996e-03 0.0000e+00
2.7673e-03 2.2012e-03 0.0000e+00
2.9144e-03 2.2028e-03 0.0000e+00
3.0611e-03 2.2044e-03 0.0000e+00
3.2062e-03 2.2061e-03 0.0000e+00
3.3566e-03 2.2104e-03 0.0000e+00
3.4886e-03 2.2112e-03 0.0000e+00
3.6351e-03 2.2066e-03 0.0000e+00
1.5586e-04 2.2666e-03 0.0000e+00
3.1324e-04 2.2703e-03 0.0000e+00
4.7268e-04 2.2771e-03 0.0000e+00
6.3296e-04 2.2848e-03 0.0000e+00
7.9267e-04 2.2931e-03 0.0000e+00
9.5029e-04 2.3000e-03 0.0000e+00
1.1064e-03 2.3063e-03 0.0000e+00
1.2611e-03 2.3111e-03 0.0000e+00
1.4148e-03 2.3158e-03 0.0000e+00
1.5674e-03 2.3195e-03 0.0000e+00
1.7193e-03 2.3232e-03 0.0000e+00
1.8704e-03 2.3263e-03 0.0000e+00
2.0209e-03 2.3293e-03 0.0000e+00
2.1707e-03 2.3319e-03 0.0000e+00
2.3201e-03 2.3344e-03 0.0000e+00
2.4688e-03 2.3368e-03 0.0000e+00
2.6171e-03 2.3392e-03 0.0000e+00
2.7649e-03 2.3415e-03 0.0000e+00
2.9122e-03 2.3439e-03 0.0000e+00
3.0590e-03 2.3463e-03 0.0000e+00
3.2106e-03 2.3514e-03 0.0000e+00
3.3606e-03 2.3522e-03 0.0000e+00
3.5415e-03 2.3525e-03 0.0000e+00
1.5120e-04 2.4009e-03 0.0000e+00
3.0308e-04 2.4027e-03 0.0000e+00
4.5733e-04 2.4059e-03 0.0000e+00
6.1524e-04 2.4113e-03 0.0000e+00
7.7500e-04 2.4190e-03 0.0000e+00
9.3456e-04 2.4277e-03 0.0000e+00
1.0926e-03 2.4348e-03 0.0000e+00
1.2493e-03 2.4417e-03 0.0000e+00
1.4042e-03 2.4472e-03 0.0000e+00
1.5583e-03 2.4525e-03 0.0000e+00
1.7113e-03 2.4569e-03 0.0000e+00
1.8636e-03 2.4613e-03 0.0000e+00
2.0149e-03 2.4650e-03 0.0000e+00
2.1657e-03 2.4687e-03 0.0000e+00
2.3155e-03 2.4721e-03 0.0000e+00
2.4649e-03 2.4754e-03 0.0000e+00
2.6136e-03 2.4786e-03 0.0000e+00
2.7617e-03 2.4817e-03 0.0000e+00
2.9093e-03 2.4848e-03 0.0000e+00
3.0599e-03 2.4916e-03 0.0000e+00
3.2066e-03 2.4949e-03 0.0000e+00
3.3662e-03 2.5071e-03 0.0000e+00
3.4891e-03 2.4781e-03 0.0000e+00
1.4935e-04 2.5420e-03 0.0000e+00
2.9874e-04 2.5423e-03 0.0000e+00
4.4876e-04 2.5433e-03 0.0000e+00
5.9995e-04 2.5449e-03 0.0000e+00
7.5433e-04 2.5495e-03 0.0000e+00
9.1339e-04 2.5552e-03 0.0000e+00
1.0742e-03 2.5636e-03 0.0000e+00
1.2329e-03 2.5715e-03 0.0000e+00
1.3903e-03 2.5786e-03 0.0000e+00
1.5459e-03 2.5845e-03 0.0000e+00
1.7007e-03 2.5904e-03 0.0000e+00
1.8543e-03 2.5953e-03 0.0000e+00
2.0072e-03 2.6005e-03 0.0000e+00
2.1588e-03 2.6050e-03 0.0000e+00
2.3099e-03 2.6094e-03 0.0000e+00
2.4598e-03 2.6136e-03 0.0000e+00
2.6092e-03 2.6177e-03 0.0000e+00
2.7577e-03 2.6217e-03 0.0000e+00
2.9093e-03 2.6293e-03 0.0000e+00
3.0565e-03 2.6334e-03 0.0000e+00
3.2134e-03 2.6478e-03 0.0000e+00
3.3293e-03 2.6207e-03 0.0000e+00
3.4877e-03 2.6391e-03 0.0000e+00
1.4853e-04 2.6853e-03 0.0000e+00
2.9716e-04 2.6855e-03 0.0000e+00
4.4583e-04 2.6858e-03 0.0000e+00
5.9464e-04 2.6865e-03 0.0000e+00
7.4415e-04 2.6874e-03 0.0000e+00
8.9539e-04 2.6892e-03 0.0000e+00
1.0505e-03 2.6939e-03 0.0000e+00
1.2108e-03 2.7007e-03 0.0000e+00
1.3713e-03 2.7086e-03 0.0000e+00
1.5297e-03 2.7165e-03 0.0000e+00
1.6863e-03 2.7225e-03 0.0000e+00
1.8421e-03 2.7291e-03 0.0000e+00
1.9965e-03 2.7346e-03 0.0000e+00
2.1502e-03 2.7406e-03 0.0000e+00
2.3023e-03 2.7460e-03 0.0000e+00
2.4537e-03 2.7513e-03 0.0000e+00
2.6037e-03 2.7564e-03 0.0000e+00
2.7557e-03 2.7641e-03 0.0000e+00
2.9049e-03 2.7709e-03 0.0000e+00
3.0627e-03 2.7854e-03 0.0000e+00
3.1793e-03 2.7593e-03 0.0000e+00
3.3415e-03 2.7788e-03 0.0000e+00
3.4840e-03 2.7825e-03 0.0000e+00
1.4803e-04 2.8300e-03 0.0000e+00
2.9608e-04 2.8300e-03 0.0000e+00
4.4415e-04 2.8303e-03 0.0000e+00
5.9244e-04 2.8306e-03 0.0000e+00
7.4092e-04 2.8308e-03 0.0000e+00
8.8946e-04 2.8312e-03 0.0000e+00
1.0387e-03 2.8321e-03 0.0000e+00
1.1901e-03 2.8342e-03 0.0000e+00
1.3465e-03 2.8398e-03 0.0000e+00
1.5072e-03 2.8464e-03 0.0000e+00
1.6673e-03 2.8546e-03 0.0000e+00
1.8251e-03 2.8612e-03 0.0000e+00
1.9823e-03 2.8682e-03 0.0000e+00
2.1378e-03 2.8746e-03 0.0000e+00
2.2927e-03 2.8816e-03 0.0000e+00
2.4455e-03 2.8880e-03 0.0000e+00
2.5982e-03 2.8954e-03 0.0000e+00
2.7479e-03 2.9034e-03 0.0000e+00
2.9094e-03 2.9224e-03 0.0000e+00
3.0277e-03 2.8968e-03 0.0000e+00
3.1894e-03 2.9164e-03 0.0000e+00
3.3436e-03 2.9265e-03 0.0000e+00
1.4773e-04 2.9754e-03 0.0000e+00
2.9543e-04 2.9755e-03 0.0000e+00
4.4318e-04 2.9756e-03 0.0000e+00
5.9104e-04 2.9757e-03 0.0000e+00
7.3896e-04 2.9758e-03 0.0000e+00
8.8702e-04 2.9760e-03 0.0000e+00
1.0352e-03 2.9761e-03 0.0000e+00
1.1835e-03 2.9765e-03 0.0000e+00
1.3326e-03 2.9772e-03 0.0000e+00
1.4847e-03 2.9803e-03 0.0000e+00
1.6422e-03 2.9856e-03 0.0000e+00
1.8029e-03 2.9929e-03 0.0000e+00
1.9619e-03 3.0001e-03 0.0000e+00
2.1207e-03 3.0075e-03 0.0000e+00
2.2782e-03 3.0148e-03 0.0000e+00
2.4347e-03 3.0233e-03 0.0000e+00
2.5873e-03 3.0312e-03 0.0000e+00
2.7397e-03 3.0392e-03 0.0000e+00
2.8731e-03 3.0465e-03 0.0000e+00
3.0354e-03 3.0541e-03 0.0000e+00
3.1831e-03 3.0600e-03 0.0000e+00
3.3125e-03 3.1031e-03 0.0000e+00
1.4755e-04 3.1214e-03 0.0000e+00
2.9509e-04 3.1214e-03 0.0000e+00
4.4266e-04 3.1214e-03 0.0000e+00
5.9023e-04 3.1214e-03 0.0000e+00
7.3783e-04 3.1215e-03 0.0000e+00
8.8547e-04 3.1215e-03 0.0000e+00
1.0332e-03 3.1216e-03 0.0000e+00
1.1810e-03 3.1217e-03 0.0000e+00
1.3288e-03 3.1218e-03 0.0000e+00
1.4769e-03 3.1220e-03 0.0000e+00
1.6262e-03 3.1230e-03 0.0000e+00
1.7790e-03 3.1266e-03 0.0000e+00
1.9371e-03 3.1324e-03 0.0000e+00
2.0968e-03 3.1388e-03 0.0000e+00
2.2570e-03 3.1467e-03 0.0000e+00
2.4170e-03 3.1548e-03 0.0000e+00
2.5772e-03 3.1650e-03 0.0000e+00
2.7320e-03 3.1736e-03 0.0000e+00
2.8995e-03 3.1739e-03 0.0000e+00
3.0177e-03 3.2129e-03 0.0000e+00
3.1947e-03 3.2070e-03 0.0000e+00
1.4742e-04 3.2681e-03 0.0000e+00
2.9485e-04 3.2681e-03 0.0000e+00
4.4229e-04 3.2681e-03 0.0000e+00
5.8972e-04 3.2682e-03 0.0000e+00
7.3716e-04 3.2682e-03 0.0000e+00
8.8460e-04 3.2682e-03 0.0000e+00
1.0321e-03 3.2682e-03 0.0000e+00
1.1795e-03 3.2682e-03 0.0000e+00
1.3270e-03 3.2682e-03 0.0000e+00
1.4746e-03 3.2682e-03 0.0000e+00
1.6221e-03 3.2682e-03 0.0000e+00
1.7700e-03 3.2685e-03 0.0000e+00
1.9195e-03 3.2700e-03 0.0000e+00
2.0731e-03 3.2740e-03 0.0000e+00
2.2306e-03 3.2786e-03 0.0000e+00
2.3910e-03 3.2861e-03 0.0000e+00
2.5537e-03 3.2950e-03 0.0000e+00
2.7209e-03 3.3080e-03 0.0000e+00
2.8788e-03 3.3223e-03 0.0000e+00
3.0500e-03 3.3408e-03 0.0000e+00
3.1527e-03 3.3492e-03 0.0000e+00
1.4730e-04 3.4171e-03 0.0000e+00
2.9460e-04 3.4182e-03 0.0000e+00
4.4191e-04 3.4182e-03 0.0000e+00
5.8923e-04 3.4182e-03 0.0000e+00
7.3654e-04 3.4182e-03 0.0000e+00
8.8387e-04 3.4182e-03 0.0000e+00
1.0312e-03 3.4182e-03 0.0000e+00
1.1785e-03 3.4182e-03 0.0000e+00
1.3258e-03 3.4182e-03 0.0000e+00
1.4731e-03 3.4182e-03 0.0000e+00
1.6205e-03 3.4182e-03 0.0000e+00
1.7678e-03 3.4182e-03 0.0000e+00
1.9151e-03 3.4182e-03 0.0000e+00
2.0629e-03 3.4186e-03 0.0000e+00
2.2126e-03 3.4204e-03 0.0000e+00
2.3656e-03 3.4233e-03 0.0000e+00
2.5231e-03 3.4287e-03 0.0000e+00
2.6864e-03 3.4374e-03 0.0000e+00
2.8596e-03 3.4548e-03 0.0000e+00
3.0030e-03 3.4734e-03 0.0000e+00
3.1554e-03 3.4861e-03 0.0000e+00
1.4717e-04 3.5726e-03 0.0000e+00
2.9436e-04 3.5752e-03 0.0000e+00
4.4154e-04 3.5757e-03 0.0000e+00
5.8872e-04 3.5757e-03 0.0000e+00
7.3592e-04 3.5757e-03 0.0000e+00
8.8311e-04 3.5757e-03 0.0000e+00
1.0303e-03 3.5757e-03 0.0000e+00
1.1775e-03 3.5757e-03 0.0000e+00
1.3247e-03 3.5757e-03 0.0000e+00
1.4719e-03 3.5757e-03 0.0000e+00
1.6191e-03 3.5757e-03 0.0000e+00
1.7662e-03 3.5758e-03 0.0000e+00
1.9134e-03 3.5757e-03 0.0000e+00
2.0605e-03 3.5757e-03 0.0000e+00
2.2077e-03 3.5758e-03 0.0000e+00
2.3552e-03 3.5764e-03 0.0000e+00
2.5044e-03 3.5774e-03 0.0000e+00
2.6570e-03 3.5793e-03 0.0000e+00
2.8230e-03 3.5833e-03 0.0000e+00
3.0226e-03 3.5991e-03 0.0000e+00
0.0000e+00 -7.2709e-07 0.0000e+00
1.4694e-04 -7.6290e-07 0.0000e+00
2.9413e-04 -7.5320e-07 0.0000e+00
4.4113e-04 -7.9917e-07 0.0000e+00
5.8823e-04 -8.2567e-07 0.0000e+00
7.3529e-04 -8.0292e-07 0.0000e+00
8.8235e-04 -8.2948e-07 0.0000e+00
1.0294e-03 -8.2772e-07 0.0000e+00
1.1765e-03 -8.5145e-07 0.0000e+00
1.3235e-03 -8.6161e-07 0.0000e+00
1.4706e-03 -8.7436e-07 0.0000e+00
1.6176e-03 -9.0645e-07 0.0000e+00
1.7647e-03 -9.2753e-07 0.0000e+00
1.9118e-03 -9.0646e-07 0.0000e+00
2.0588e-03 -9.8687e-07 0.0000e+00
2.2059e-03 -1.0179e-06 0.0000e+00
2.3531e-03 -1.1485e-06 0.0000e+00
2.5000e-03 -1.3885e-06 0.0000e+00
2.6471e-03 -1.2321e-06 0.0000e+00
2.7941e-03 -1.2016e-06 0.0000e+00
2.9608e-03 -5.8256e-06 0.0000e+00
3.1425e-03 6.4081e-05 0.0000e+00
3.2188e-03 2.0286e-04 0.0000e+00