# vtk DataFile Version 3.0
VTK Example
ASCII
DATASET UNSTRUCTURED_GRID
POINTS 972 float 
0 -1.95844e-05 0.0
0.00251901 -2.10449e-05 0.0
0.00251901 0.00657733 0.0
0 0.00657705 0.0
0.000146244 -2.0194e-05 0.0
0.000293954 -2.03474e-05 0.0
0.000441164 -2.03458e-05 0.0
0.00058818 -2.03501e-05 0.0
0.000735288 -2.0338e-05 0.0
0.00088239 -2.03363e-05 0.0
0.001029 -2.03286e-05 0.0
0.00117599 -2.03248e-05 0.0
0.001324 -2.02971e-05 0.0
0.001471 -2.02897e-05 0.0
0.00161801 -2.03264e-05 0.0
0.001765 -2.03862e-05 0.0
0.00191206 -2.04314e-05 0.0
0.00205899 -2.04944e-05 0.0
0.00220608 -2.053e-05 0.0
0.00235462 -2.03567e-05 0.0
0.00255602 9.44003e-05 0.0
0.0025681 0.00022109 0.0
0.002581 0.000355106 0.0
0.00259161 0.000488006 0.0
0.00260218 0.000621473 0.0
0.00261227 0.000754207 0.0
0.00262223 0.000886307 0.0
0.00263198 0.00101821 0.0
0.00264165 0.00115068 0.0
0.00265105 0.00128178 0.0
0.00266025 0.00141253 0.0
0.00266914 0.00154289 0.0
0.00267769 0.00167293 0.0
0.00268583 0.00180262 0.0
0.00269352 0.00193201 0.0
0.00270068 0.00206111 0.0
0.00270728 0.00218995 0.0
0.00271326 0.00231854 0.0
0.00271859 0.00244691 0.0
0.00272322 0.00257508 0.0
0.00272713 0.00270307 0.0
0.00273029 0.00283093 0.0
0.00273268 0.00295866 0.0
0.00273428 0.00308631 0.0
0.00273509 0.00321392 0.0
0.00273509 0.00334237 0.0
0.00273428 0.00346997 0.0
0.00273268 0.00359762 0.0
0.0027303 0.00372536 0.0
0.00272714 0.00385321 0.0
0.00272323 0.0039812 0.0
0.00271859 0.00410937 0.0
0.00271326 0.00423774 0.0
0.00270728 0.00436633 0.0
0.00270068 0.00449517 0.0
0.00269352 0.00462427 0.0
0.00268584 0.00475367 0.0
0.0026777 0.00488336 0.0
0.00266914 0.00501339 0.0
0.00266025 0.00514375 0.0
0.00265105 0.00527451 0.0
0.00264165 0.0054056 0.0
0.00263198 0.00553807 0.0
0.00262223 0.00566998 0.0
0.00261224 0.00580244 0.0
0.00260215 0.00593508 0.0
0.00259159 0.00606846 0.0
0.00258099 0.00620136 0.0
0.00256809 0.00633529 0.0
0.00255601 0.00646197 0.0
0.00235462 0.00657664 0.0
0.00220608 0.00657682 0.0
0.00205899 0.00657678 0.0
0.00191206 0.00657672 0.0
0.001765 0.00657667 0.0
0.00161801 0.00657661 0.0
0.001471 0.00657658 0.0
0.001324 0.00657658 0.0
0.00117599 0.00657661 0.0
0.001029 0.00657661 0.0
0.000882389 0.00657662 0.0
0.000735289 0.00657662 0.0
0.00058818 0.00657663 0.0
0.000441174 0.00657663 0.0
0.000294066 0.00657665 0.0
0.000147017 0.0065766 0.0
0 0.00642988 0.0
0 0.00628329 0.0
0 0.00613722 0.0
0 0.00599168 0.0
0 0.00584686 0.0
0 0.00570317 0.0
0 0.00556086 0.0
0 0.00542041 0.0
0 0.00528121 0.0
0 0.00514586 0.0
0 0.00501371 0.0
0 0.00488491 0.0
0 0.004759 0.0
0 0.00463553 0.0
0 0.00451389 0.0
0 0.00439368 0.0
0 0.00427447 0.0
0 0.00415603 0.0
0 0.00403815 0.0
0 0.00392069 0.0
0 0.00380354 0.0
0 0.00368664 0.0
0 0.00356992 0.0
0 0.00345332 0.0
0 0.00333679 0.0
0 0.0032195 0.0
0 0.00310297 0.0
0 0.00298637 0.0
0 0.00286965 0.0
0 0.00275274 0.0
0 0.0026356 0.0
0 0.00251814 0.0
0 0.00240026 0.0
0 0.00228182 0.0
0 0.00216261 0.0
0 0.0020424 0.0
0 0.00192076 0.0
0 0.0017973 0.0
0 0.00167138 0.0
0 0.00154259 0.0
0 0.00141043 0.0
0 0.00127508 0.0
0 0.00113587 0.0
0 0.000995419 0.0
0 0.000853486 0.0
0 0.000709695 0.0
0 0.000564752 0.0
0 0.000419166 0.0
0 0.000272859 0.0
0 0.00012529 0.0
0.000146791 0.000126361 0.0
0.000147383 0.000272846 0.0
0.000147657 0.000419067 0.0
0.000147969 0.000564648 0.0
0.000148442 0.000709523 0.0
0.000149114 0.000853303 0.0
0.000149958 0.000995029 0.0
0.000151014 0.00113538 0.0
0.000152423 0.00127428 0.0
0.000154176 0.00140945 0.0
0.000156141 0.00154133 0.0
0.000158034 0.00167007 0.0
0.000159681 0.00179589 0.0
0.000161011 0.00191942 0.0
0.000162042 0.00204112 0.0
0.000162812 0.00216148 0.0
0.000163389 0.00228082 0.0
0.000163822 0.00239942 0.0
0.000164151 0.00251745 0.0
0.0001644 0.00263504 0.0
0.000164591 0.00275231 0.0
0.000164736 0.00286932 0.0
0.000164842 0.00298614 0.0
0.000164911 0.00310284 0.0
0.000164945 0.00321945 0.0
0.000164945 0.00333684 0.0
0.000164911 0.00345345 0.0
0.000164842 0.00357014 0.0
0.000164736 0.00368697 0.0
0.000164591 0.00380398 0.0
0.0001644 0.00392124 0.0
0.000164151 0.00403884 0.0
0.000163822 0.00415687 0.0
0.000163389 0.00427547 0.0
0.000162812 0.00439481 0.0
0.000162042 0.00451517 0.0
0.000161011 0.00463687 0.0
0.00015968 0.0047604 0.0
0.000158033 0.00488623 0.0
0.00015614 0.00501496 0.0
0.000154176 0.00514684 0.0
0.000152426 0.00528201 0.0
0.00015102 0.0054209 0.0
0.000149964 0.00556124 0.0
0.000149117 0.00570335 0.0
0.000148447 0.00584702 0.0
0.000147984 0.00599178 0.0
0.000147687 0.00613732 0.0
0.000147462 0.00628337 0.0
0.00014721 0.00642982 0.0
0.000294269 0.000126493 0.0
0.000294753 0.000272898 0.0
0.000295261 0.000419025 0.0
0.000295902 0.000564465 0.0
0.000296895 0.000709177 0.0
0.000298274 0.000852628 0.0
0.000299986 0.000994143 0.0
0.00030218 0.00113405 0.0
0.000305049 0.00127254 0.0
0.000308562 0.00140711 0.0
0.000312346 0.00153864 0.0
0.000316003 0.00166712 0.0
0.00031917 0.00179301 0.0
0.000321751 0.00191668 0.0
0.000323754 0.00203868 0.0
0.000325281 0.00215932 0.0
0.00032643 0.00227899 0.0
0.000327306 0.00239787 0.0
0.000327981 0.00251618 0.0
0.000328503 0.00263402 0.0
0.000328904 0.00275151 0.0
0.000329209 0.00286872 0.0
0.000329431 0.00298573 0.0
0.000329577 0.00310259 0.0
0.00032965 0.00321937 0.0
0.00032965 0.00333692 0.0
0.000329577 0.0034537 0.0
0.000329431 0.00357056 0.0
0.000329209 0.00368757 0.0
0.000328904 0.00380478 0.0
0.000328503 0.00392227 0.0
0.000327981 0.00404011 0.0
0.000327306 0.00415841 0.0
0.000326429 0.0042773 0.0
0.00032528 0.00439696 0.0
0.000323752 0.00451761 0.0
0.00032175 0.00463961 0.0
0.000319168 0.00476328 0.0
0.000316002 0.00488917 0.0
0.000312346 0.00501765 0.0
0.000308564 0.00514918 0.0
0.000305055 0.00528375 0.0
0.00030219 0.00542223 0.0
0.000299998 0.00556213 0.0
0.000298281 0.00570402 0.0
0.000296907 0.00584736 0.0
0.000295928 0.00599196 0.0
0.000295301 0.00613738 0.0
0.000294838 0.00628339 0.0
0.000294439 0.00642981 0.0
0.000441657 0.000126528 0.0
0.000442292 0.000272928 0.0
0.000443035 0.000418949 0.0
0.00044411 0.00056421 0.0
0.000445702 0.000708529 0.0
0.000447788 0.000851644 0.0
0.000450439 0.000992614 0.0
0.000453866 0.001132 0.0
0.000458329 0.00126964 0.0
0.000463507 0.0014035 0.0
0.000468941 0.0015344 0.0
0.000474079 0.00166267 0.0
0.000478581 0.00178857 0.0
0.000482269 0.00191255 0.0
0.000485196 0.00203492 0.0
0.000487457 0.00215605 0.0
0.000489202 0.00227616 0.0
0.000490543 0.0023955 0.0
0.000491594 0.00251421 0.0
0.000492418 0.00263243 0.0
0.000493061 0.00275025 0.0
0.000493549 0.00286778 0.0
0.000493906 0.00298507 0.0
0.000494139 0.0031022 0.0
0.000494255 0.00321924 0.0
0.000494255 0.00333705 0.0
0.000494139 0.00345408 0.0
0.000493906 0.00357122 0.0
0.000493549 0.00368851 0.0
0.000493061 0.00380603 0.0
0.000492418 0.00392386 0.0
0.000491593 0.00404208 0.0
0.000490543 0.00416079 0.0
0.000489201 0.00428013 0.0
0.000487456 0.00440024 0.0
0.000485194 0.00452137 0.0
0.000482267 0.00464373 0.0
0.000478579 0.00476772 0.0
0.000474077 0.00489361 0.0
0.000468941 0.00502189 0.0
0.000463511 0.00515278 0.0
0.000458338 0.00528664 0.0
0.000453879 0.00542428 0.0
0.000450455 0.00556366 0.0
0.0004478 0.005705 0.0
0.000445722 0.00584801 0.0
0.000444138 0.00599222 0.0
0.000443072 0.00613748 0.0
0.000442353 0.0062834 0.0
0.00044173 0.00642983 0.0
0.000588906 0.000126553 0.0
0.000589745 0.000272913 0.0
0.000590836 0.000418832 0.0
0.000592482 0.00056376 0.0
0.000594723 0.000707702 0.0
0.000597582 0.000850226 0.0
0.000601255 0.000990638 0.0
0.000606143 0.00112906 0.0
0.000612208 0.00126575 0.0
0.000618947 0.00139861 0.0
0.000625718 0.00152894 0.0
0.000632069 0.0016569 0.0
0.000637621 0.00178291 0.0
0.000642271 0.0019072 0.0
0.000646018 0.00203008 0.0
0.000648999 0.00215175 0.0
0.000651341 0.00227245 0.0
0.000653189 0.00239234 0.0
0.000654647 0.00251157 0.0
0.000655808 0.00263027 0.0
0.000656723 0.00274855 0.0
0.000657426 0.00286649 0.0
0.000657937 0.00298417 0.0
0.000658272 0.00310167 0.0
0.000658439 0.00321906 0.0
0.000658439 0.00333722 0.0
0.000658273 0.00345462 0.0
0.000657937 0.00357212 0.0
0.000657426 0.0036898 0.0
0.000656723 0.00380774 0.0
0.000655808 0.00392601 0.0
0.000654647 0.00404471 0.0
0.000653189 0.00416395 0.0
0.00065134 0.00428383 0.0
0.000648998 0.00440454 0.0
0.000646017 0.00452621 0.0
0.00064227 0.00464909 0.0
0.00063762 0.00477337 0.0
0.00063207 0.00489939 0.0
0.000625721 0.00502735 0.0
0.000618954 0.00515767 0.0
0.000612219 0.00529053 0.0
0.000606158 0.00542721 0.0
0.000601273 0.00556563 0.0
0.000597597 0.00570642 0.0
0.000594743 0.00584884 0.0
0.000592505 0.00599269 0.0
0.000590865 0.00613762 0.0
0.000589782 0.00628344 0.0
0.000588934 0.00642982 0.0
0.000736235 0.000126542 0.0
0.000737347 0.000272874 0.0
0.000738933 0.000418571 0.0
0.000741266 0.000563164 0.0
0.000744229 0.000706547 0.0
0.00074793 0.000848541 0.0
0.000752921 0.000987978 0.0
0.000759383 0.00112532 0.0
0.000767046 0.00126073 0.0
0.000775058 0.00139271 0.0
0.000782917 0.00152237 0.0
0.00079013 0.00165015 0.0
0.00079651 0.00177625 0.0
0.000801912 0.00190093 0.0
0.000806396 0.00202433 0.0
0.00081004 0.00214663 0.0
0.000812991 0.00226797 0.0
0.000815363 0.0023885 0.0
0.000817274 0.00250834 0.0
0.000818803 0.00262761 0.0
0.00082002 0.00274641 0.0
0.000820961 0.00286486 0.0
0.000821651 0.00298302 0.0
0.000822103 0.00310099 0.0
0.000822327 0.00321884 0.0
0.000822327 0.00333745 0.0
0.000822103 0.0034553 0.0
0.000821651 0.00357326 0.0
0.000820962 0.00369143 0.0
0.00082002 0.00380987 0.0
0.000818803 0.00392868 0.0
0.000817273 0.00404795 0.0
0.000815362 0.00416779 0.0
0.00081299 0.00428832 0.0
0.000810039 0.00440965 0.0
0.000806395 0.00453196 0.0
0.000801911 0.00465536 0.0
0.000796511 0.00478004 0.0
0.000790133 0.00490613 0.0
0.000782922 0.00503391 0.0
0.000775066 0.00516357 0.0
0.000767058 0.00529554 0.0
0.000759399 0.00543095 0.0
0.000752941 0.00556829 0.0
0.000747942 0.00570811 0.0
0.000744245 0.00585001 0.0
0.000741283 0.0059933 0.0
0.000738952 0.00613789 0.0
0.000737367 0.0062835 0.0
0.000736246 0.00642984 0.0
0.00088358 0.000126548 0.0
0.000885046 0.000272759 0.0
0.000887308 0.0004182 0.0
[...]
POINT_DATA 972
VECTORS Position float
0.0000e+00 -1.9584e-05 0.0000e+00
2.5190e-03 -2.1045e-05 0.0000e+00
2.5190e-03 6.5773e-03 0.0000e+00
0.0000e+00 6.5771e-03 0.0000e+00
1.4624e-04 -2.0194e-05 0.0000e+00
2.9395e-04 -2.0347e-05 0.0000e+00
4.4116e-04 -2.0346e-05 0.0000e+00
5.8818e-04 -2.0350e-05 0.0000e+00
7.3529e-04 -2.0338e-05 0.0000e+00
8.8239e-04 -2.0336e-05 0.0000e+00
1.0290e-03 -2.0329e-05 0.0000e+00
1.1760e-03 -2.0325e-05 0.0000e+00
1.3240e-03 -2.0297e-05 0.0000e+00
1.4710e-03 -2.0290e-05 0.0000e+00
1.6180e-03 -2.0326e-05 0.0000e+00
1.7650e-03 -2.0386e-05 0.0000e+00
1.9121e-03 -2.0431e-05 0.0000e+00
2.0590e-03 -2.0494e-05 0.0000e+00
2.2061e-03 -2.0530e-05 0.0000e+00
2.3546e-03 -2.0357e-05 0.0000e+00
2.5560e-03 9.4400e-05 0.0000e+00
2.5681e-03 2.2109e-04 0.0000e+00
2.5810e-03 3.5511e-04 0.0000e+00
2.5916e-03 4.8801e-04 0.0000e+00
2.6022e-03 6.2147e-04 0.0000e+00
2.6123e-03 7.5421e-04 0.0000e+00
2.6222e-03 8.8631e-04 0.0000e+00
2.6320e-03 1.0182e-03 0.0000e+00
2.6417e-03 1.1507e-03 0.0000e+00
2.6511e-03 1.2818e-03 0.0000e+00
2.6602e-03 1.4125e-03 0.0000e+00
2.6691e-03 1.5429e-03 0.0000e+00
2.6777e-03 1.6729e-03 0.0000e+00
2.6858e-03 1.8026e-03 0.0000e+00
2.6935e-03 1.9320e-03 0.0000e+00
2.7007e-03 2.0611e-03 0.0000e+00
2.7073e-03 2.1900e-03 0.0000e+00
2.7133e-03 2.3185e-03 0.0000e+00
2.7186e-03 2.4469e-03 0.0000e+00
2.7232e-03 2.5751e-03 0.0000e+00
2.7271e-03 2.7031e-03 0.0000e+00
2.7303e-03 2.8309e-03 0.0000e+00
2.7327e-03 2.9587e-03 0.0000e+00
2.7343e-03 3.0863e-03 0.0000e+00
2.7351e-03 3.2139e-03 0.0000e+00
2.7351e-03 3.3424e-03 0.0000e+00
2.7343e-03 3.4700e-03 0.0000e+00
2.7327e-03 3.5976e-03 0.0000e+00
2.7303e-03 3.7254e-03 0.0000e+00
2.7271e-03 3.8532e-03 0.0000e+00
2.7232e-03 3.9812e-03 0.0000e+00
2.7186e-03 4.1094e-03 0.0000e+00
2.7133e-03 4.2377e-03 0.0000e+00
2.7073e-03 4.3663e-03 0.0000e+00
2.7007e-03 4.4952e-03 0.0000e+00
2.6935e-03 4.6243e-03 0.0000e+00
2.6858e-03 4.7537e-03 0.0000e+00
2.6777e-03 4.8834e-03 0.0000e+00
2.6691e-03 5.0134e-03 0.0000e+00
2.6602e-03 5.1438e-03 0.0000e+00
2.6511e-03 5.2745e-03 0.0000e+00
2.6417e-03 5.4056e-03 0.0000e+00
2.6320e-03 5.5381e-03 0.0000e+00
2.6222e-03 5.6700e-03 0.0000e+00
2.6122e-03 5.8024e-03 0.0000e+00
2.6022e-03 5.9351e-03 0.0000e+00
2.5916e-03 6.0685e-03 0.0000e+00
2.5810e-03 6.2014e-03 0.0000e+00
2.5681e-03 6.3353e-03 0.0000e+00
2.5560e-03 6.4620e-03 0.0000e+00
2.3546e-03 6.5766e-03 0.0000e+00
2.2061e-03 6.5768e-03 0.0000e+00
2.0590e-03 6.5768e-03 0.0000e+00
1.9121e-03 6.5767e-03 0.0000e+00
1.7650e-03 6.5767e-03 0.0000e+00
1.6180e-03 6.5766e-03 0.0000e+00
1.4710e-03 6.5766e-03 0.0000e+00
1.3240e-03 6.5766e-03 0.0000e+00
1.1760e-03 6.5766e-03 0.0000e+00
1.0290e-03 6.5766e-03 0.0000e+00
8.8239e-04 6.5766e-03 0.0000e+00
7.3529e-04 6.5766e-03 0.0000e+00
5.8818e-04 6.5766e-03 0.0000e+00
4.4117e-04 6.5766e-03 0.0000e+00
2.9407e-04 6.5766e-03 0.0000e+00
1.4702e-04 6.5766e-03 0.0000e+00
0.0000e+00 6.4299e-03 0.0000e+00
0.0000e+00 6.2833e-03 0.0000e+00
0.0000e+00 6.1372e-03 0.0000e+00
0.0000e+00 5.9917e-03 0.0000e+00
0.0000e+00 5.8469e-03 0.0000e+00
0.0000e+00 5.7032e-03 0.0000e+00
0.0000e+00 5.5609e-03 0.0000e+00
0.0000e+00 5.4204e-03 0.0000e+00
0.0000e+00 5.2812e-03 0.0000e+00
0.0000e+00 5.1459e-03 0.0000e+00
0.0000e+00 5.0137e-03 0.0000e+00
0.0000e+00 4.8849e-03 0.0000e+00
0.0000e+00 4.7590e-03 0.0000e+00
0.0000e+00 4.6355e-03 0.0000e+00
0.0000e+00 4.5139e-03 0.0000e+00
0.0000e+00 4.3937e-03 0.0000e+00
0.0000e+00 4.2745e-03 0.0000e+00
0.0000e+00 4.1560e-03 0.0000e+00
0.0000e+00 4.0381e-03 0.0000e+00
0.0000e+00 3.9207e-03 0.0000e+00
0.0000e+00 3.8035e-03 0.0000e+00
0.0000e+00 3.6866e-03 0.0000e+00
0.0000e+00 3.5699e-03 0.0000e+00
0.0000e+00 3.4533e-03 0.0000e+00
0.0000e+00 3.3368e-03 0.0000e+00
0.0000e+00 3.2195e-03 0.0000e+00
0.0000e+00 3.1030e-03 0.0000e+00
0.0000e+00 2.9864e-03 0.0000e+00
0.0000e+00 2.8696e-03 0.0000e+00
0.0000e+00 2.7527e-03 0.0000e+00
0.0000e+00 2.6356e-03 0.0000e+00
0.0000e+00 2.5181e-03 0.0000e+00
0.0000e+00 2.4003e-03 0.0000e+00
0.0000e+00 2.2818e-03 0.0000e+00
0.0000e+00 2.1626e-03 0.0000e+00
0.0000e+00 2.0424e-03 0.0000e+00
0.0000e+00 1.9208e-03 0.0000e+00
0.0000e+00 1.7973e-03 0.0000e+00
0.0000e+00 1.6714e-03 0.0000e+00
0.0000e+00 1.5426e-03 0.0000e+00
0.0000e+00 1.4104e-03 0.0000e+00
0.0000e+00 1.2751e-03 0.0000e+00
0.0000e+00 1.1359e-03 0.0000e+00
0.0000e+00 9.9542e-04 0.0000e+00
0.0000e+00 8.5349e-04 0.0000e+00
0.0000e+00 7.0969e-04 0.0000e+00
0.0000e+00 5.6475e-04 0.0000e+00
0.0000e+00 4.1917e-04 0.0000e+00
0.0000e+00 2.7286e-04 0.0000e+00
0.0000e+00 1.2529e-04 0.0000e+00
1.4679e-04 1.2636e-04 0.0000e+00
1.4738e-04 2.7285e-04 0.0000e+00
1.4766e-04 4.1907e-04 0.0000e+00
1.4797e-04 5.6465e-04 0.0000e+00
1.4844e-04 7.0952e-04 0.0000e+00
1.4911e-04 8.5330e-04 0.0000e+00
1.4996e-04 9.9503e-04 0.0000e+00
1.5101e-04 1.1354e-03 0.0000e+00
1.5242e-04 1.2743e-03 0.0000e+00
1.5418e-04 1.4095e-03 0.0000e+00
1.5614e-04 1.5413e-03 0.0000e+00
1.5803e-04 1.6701e-03 0.0000e+00
1.5968e-04 1.7959e-03 0.0000e+00
1.6101e-04 1.9194e-03 0.0000e+00
1.6204e-04 2.0411e-03 0.0000e+00
1.6281e-04 2.1615e-03 0.0000e+00
1.6339e-04 2.2808e-03 0.0000e+00
1.6382e-04 2.3994e-03 0.0000e+00
1.6415e-04 2.5174e-03 0.0000e+00
1.6440e-04 2.6350e-03 0.0000e+00
1.6459e-04 2.7523e-03 0.0000e+00
1.6474e-04 2.8693e-03 0.0000e+00
1.6484e-04 2.9861e-03 0.0000e+00
1.6491e-04 3.1028e-03 0.0000e+00
1.6495e-04 3.2195e-03 0.0000e+00
1.6495e-04 3.3368e-03 0.0000e+00
1.6491e-04 3.4534e-03 0.0000e+00
1.6484e-04 3.5701e-03 0.0000e+00
1.6474e-04 3.6870e-03 0.0000e+00
1.6459e-04 3.8040e-03 0.0000e+00
1.6440e-04 3.9212e-03 0.0000e+00
1.6415e-04 4.0388e-03 0.0000e+00
1.6382e-04 4.1569e-03 0.0000e+00
1.6339e-04 4.2755e-03 0.0000e+00
1.6281e-04 4.3948e-03 0.0000e+00
1.6204e-04 4.5152e-03 0.0000e+00
1.6101e-04 4.6369e-03 0.0000e+00
1.5968e-04 4.7604e-03 0.0000e+00
1.5803e-04 4.8862e-03 0.0000e+00
1.5614e-04 5.0150e-03 0.0000e+00
1.5418e-04 5.1468e-03 0.0000e+00
1.5243e-04 5.2820e-03 0.0000e+00
1.5102e-04 5.4209e-03 0.0000e+00
1.4996e-04 5.5612e-03 0.0000e+00
1.4912e-04 5.7033e-03 0.0000e+00
1.4845e-04 5.8470e-03 0.0000e+00
1.4798e-04 5.9918e-03 0.0000e+00
1.4769e-04 6.1373e-03 0.0000e+00
1.4746e-04 6.2834e-03 0.0000e+00
1.4721e-04 6.4298e-03 0.0000e+00
2.9427e-04 1.2649e-04 0.0000e+00
2.9475e-04 2.7290e-04 0.0000e+00
2.9526e-04 4.1903e-04 0.0000e+00
2.9590e-04 5.6446e-04 0.0000e+00
2.9689e-04 7.0918e-04 0.0000e+00
2.9827e-04 8.5263e-04 0.0000e+00
2.9999e-04 9.9414e-04 0.0000e+00
3.0218e-04 1.1340e-03 0.0000e+00
3.0505e-04 1.2725e-03 0.0000e+00
3.0856e-04 1.4071e-03 0.0000e+00
3.1235e-04 1.5386e-03 0.0000e+00
3.1600e-04 1.6671e-03 0.0000e+00
3.1917e-04 1.7930e-03 0.0000e+00
3.2175e-04 1.9167e-03 0.0000e+00
3.2375e-04 2.0387e-03 0.0000e+00
3.2528e-04 2.1593e-03 0.0000e+00
3.2643e-04 2.2790e-03 0.0000e+00
3.2731e-04 2.3979e-03 0.0000e+00
3.2798e-04 2.5162e-03 0.0000e+00
3.2850e-04 2.6340e-03 0.0000e+00
3.2890e-04 2.7515e-03 0.0000e+00
3.2921e-04 2.8687e-03 0.0000e+00
3.2943e-04 2.9857e-03 0.0000e+00
3.2958e-04 3.1026e-03 0.0000e+00
3.2965e-04 3.2194e-03 0.0000e+00
3.2965e-04 3.3369e-03 0.0000e+00
3.2958e-04 3.4537e-03 0.0000e+00
3.2943e-04 3.5706e-03 0.0000e+00
3.2921e-04 3.6876e-03 0.0000e+00
3.2890e-04 3.8048e-03 0.0000e+00
3.2850e-04 3.9223e-03 0.0000e+00
3.2798e-04 4.0401e-03 0.0000e+00
3.2731e-04 4.1584e-03 0.0000e+00
3.2643e-04 4.2773e-03 0.0000e+00
3.2528e-04 4.3970e-03 0.0000e+00
3.2375e-04 4.5176e-03 0.0000e+00
3.2175e-04 4.6396e-03 0.0000e+00
3.1917e-04 4.7633e-03 0.0000e+00
3.1600e-04 4.8892e-03 0.0000e+00
3.1235e-04 5.0177e-03 0.0000e+00
3.0856e-04 5.1492e-03 0.0000e+00
3.0505e-04 5.2837e-03 0.0000e+00
3.0219e-04 5.4222e-03 0.0000e+00
3.0000e-04 5.5621e-03 0.0000e+00
2.9828e-04 5.7040e-03 0.0000e+00
2.9691e-04 5.8474e-03 0.0000e+00
2.9593e-04 5.9920e-03 0.0000e+00
2.9530e-04 6.1374e-03 0.0000e+00
2.9484e-04 6.2834e-03 0.0000e+00
2.9444e-04 6.4298e-03 0.0000e+00
4.4166e-04 1.2653e-04 0.0000e+00
4.4229e-04 2.7293e-04 0.0000e+00
4.4304e-04 4.1895e-04 0.0000e+00
4.4411e-04 5.6421e-04 0.0000e+00
4.4570e-04 7.0853e-04 0.0000e+00
4.4779e-04 8.5164e-04 0.0000e+00
4.5044e-04 9.9261e-04 0.0000e+00
4.5387e-04 1.1320e-03 0.0000e+00
4.5833e-04 1.2696e-03 0.0000e+00
4.6351e-04 1.4035e-03 0.0000e+00
4.6894e-04 1.5344e-03 0.0000e+00
4.7408e-04 1.6627e-03 0.0000e+00
4.7858e-04 1.7886e-03 0.0000e+00
4.8227e-04 1.9126e-03 0.0000e+00
4.8520e-04 2.0349e-03 0.0000e+00
4.8746e-04 2.1560e-03 0.0000e+00
4.8920e-04 2.2762e-03 0.0000e+00
4.9054e-04 2.3955e-03 0.0000e+00
4.9159e-04 2.5142e-03 0.0000e+00
4.9242e-04 2.6324e-03 0.0000e+00
4.9306e-04 2.7503e-03 0.0000e+00
4.9355e-04 2.8678e-03 0.0000e+00
4.9391e-04 2.9851e-03 0.0000e+00
4.9414e-04 3.1022e-03 0.0000e+00
4.9426e-04 3.2192e-03 0.0000e+00
4.9426e-04 3.3370e-03 0.0000e+00
4.9414e-04 3.4541e-03 0.0000e+00
4.9391e-04 3.5712e-03 0.0000e+00
4.9355e-04 3.6885e-03 0.0000e+00
4.9306e-04 3.8060e-03 0.0000e+00
4.9242e-04 3.9239e-03 0.0000e+00
4.9159e-04 4.0421e-03 0.0000e+00
4.9054e-04 4.1608e-03 0.0000e+00
4.8920e-04 4.2801e-03 0.0000e+00
4.8746e-04 4.4002e-03 0.0000e+00
4.8519e-04 4.5214e-03 0.0000e+00
4.8227e-04 4.6437e-03 0.0000e+00
4.7858e-04 4.7677e-03 0.0000e+00
4.7408e-04 4.8936e-03 0.0000e+00
4.6894e-04 5.0219e-03 0.0000e+00
4.6351e-04 5.1528e-03 0.0000e+00
4.5834e-04 5.2866e-03 0.0000e+00
4.5388e-04 5.4243e-03 0.0000e+00
4.5045e-04 5.5637e-03 0.0000e+00
4.4780e-04 5.7050e-03 0.0000e+00
4.4572e-04 5.8480e-03 0.0000e+00
4.4414e-04 5.9922e-03 0.0000e+00
4.4307e-04 6.1375e-03 0.0000e+00
4.4235e-04 6.2834e-03 0.0000e+00
4.4173e-04 6.4298e-03 0.0000e+00
5.8891e-04 1.2655e-04 0.0000e+00
5.8974e-04 2.7291e-04 0.0000e+00
5.9084e-04 4.1883e-04 0.0000e+00
5.9248e-04 5.6376e-04 0.0000e+00
5.9472e-04 7.0770e-04 0.0000e+00
5.9758e-04 8.5023e-04 0.0000e+00
6.0125e-04 9.9064e-04 0.0000e+00
6.0614e-04 1.1291e-03 0.0000e+00
6.1221e-04 1.2657e-03 0.0000e+00
6.1895e-04 1.3986e-03 0.0000e+00
6.2572e-04 1.5289e-03 0.0000e+00
6.3207e-04 1.6569e-03 0.0000e+00
6.3762e-04 1.7829e-03 0.0000e+00
6.4227e-04 1.9072e-03 0.0000e+00
6.4602e-04 2.0301e-03 0.0000e+00
6.4900e-04 2.1518e-03 0.0000e+00
6.5134e-04 2.2725e-03 0.0000e+00
6.5319e-04 2.3923e-03 0.0000e+00
6.5465e-04 2.5116e-03 0.0000e+00
6.5581e-04 2.6303e-03 0.0000e+00
6.5672e-04 2.7486e-03 0.0000e+00
6.5743e-04 2.8665e-03 0.0000e+00
6.5794e-04 2.9842e-03 0.0000e+00
6.5827e-04 3.1017e-03 0.0000e+00
6.5844e-04 3.2191e-03 0.0000e+00
6.5844e-04 3.3372e-03 0.0000e+00
6.5827e-04 3.4546e-03 0.0000e+00
6.5794e-04 3.5721e-03 0.0000e+00
6.5743e-04 3.6898e-03 0.0000e+00
6.5672e-04 3.8077e-03 0.0000e+00
6.5581e-04 3.9260e-03 0.0000e+00
6.5465e-04 4.0447e-03 0.0000e+00
6.5319e-04 4.1639e-03 0.0000e+00
6.5134e-04 4.2838e-03 0.0000e+00
6.4900e-04 4.4045e-03 0.0000e+00
6.4602e-04 4.5262e-03 0.0000e+00
6.4227e-04 4.6491e-03 0.0000e+00
6.3762e-04 4.7734e-03 0.0000e+00
6.3207e-04 4.8994e-03 0.0000e+00
6.2572e-04 5.0273e-03 0.0000e+00
6.1895e-04 5.1577e-03 0.0000e+00
6.1222e-04 5.2905e-03 0.0000e+00
6.0616e-04 5.4272e-03 0.0000e+00
6.0127e-04 5.5656e-03 0.0000e+00
5.9760e-04 5.7064e-03 0.0000e+00
5.9474e-04 5.8488e-03 0.0000e+00
5.9251e-04 5.9927e-03 0.0000e+00
5.9086e-04 6.1376e-03 0.0000e+00
5.8978e-04 6.2834e-03 0.0000e+00
5.8893e-04 6.4298e-03 0.0000e+00
7.3624e-04 1.2654e-04 0.0000e+00
7.3735e-04 2.7287e-04 0.0000e+00
7.3893e-04 4.1857e-04 0.0000e+00
7.4127e-04 5.6316e-04 0.0000e+00
7.4423e-04 7.0655e-04 0.0000e+00
7.4793e-04 8.4854e-04 0.0000e+00
7.5292e-04 9.8798e-04 0.0000e+00
7.5938e-04 1.1253e-03 0.0000e+00
7.6705e-04 1.2607e-03 0.0000e+00
7.7506e-04 1.3927e-03 0.0000e+00
7.8292e-04 1.5224e-03 0.0000e+00
7.9013e-04 1.6502e-03 0.0000e+00
7.9651e-04 1.7762e-03 0.0000e+00
8.0191e-04 1.9009e-03 0.0000e+00
8.0640e-04 2.0243e-03 0.0000e+00
8.1004e-04 2.1466e-03 0.0000e+00
8.1299e-04 2.2680e-03 0.0000e+00
8.1536e-04 2.3885e-03 0.0000e+00
8.1727e-04 2.5083e-03 0.0000e+00
8.1880e-04 2.6276e-03 0.0000e+00
8.2002e-04 2.7464e-03 0.0000e+00
8.2096e-04 2.8649e-03 0.0000e+00
8.2165e-04 2.9830e-03 0.0000e+00
8.2210e-04 3.1010e-03 0.0000e+00
8.2233e-04 3.2188e-03 0.0000e+00
8.2233e-04 3.3374e-03 0.0000e+00
8.2210e-04 3.4553e-03 0.0000e+00
8.2165e-04 3.5733e-03 0.0000e+00
8.2096e-04 3.6914e-03 0.0000e+00
8.2002e-04 3.8099e-03 0.0000e+00
8.1880e-04 3.9287e-03 0.0000e+00
8.1727e-04 4.0480e-03 0.0000e+00
8.1536e-04 4.1678e-03 0.0000e+00
8.1299e-04 4.2883e-03 0.0000e+00
8.1004e-04 4.4097e-03 0.0000e+00
8.0640e-04 4.5320e-03 0.0000e+00
8.0191e-04 4.6554e-03 0.0000e+00
7.9651e-04 4.7800e-03 0.0000e+00
7.9013e-04 4.9061e-03 0.0000e+00
7.8292e-04 5.0339e-03 0.0000e+00
7.7507e-04 5.1636e-03 0.0000e+00
7.6706e-04 5.2955e-03 0.0000e+00
7.5940e-04 5.4309e-03 0.0000e+00
7.5294e-04 5.5683e-03 0.0000e+00
7.4794e-04 5.7081e-03 0.0000e+00
7.4425e-04 5.8500e-03 0.0000e+00
7.4128e-04 5.9933e-03 0.0000e+00
7.3895e-04 6.1379e-03 0.0000e+00
7.3737e-04 6.2835e-03 0.0000e+00
7.3625e-04 6.4298e-03 0.0000e+00
8.8358e-04 1.2655e-04 0.0000e+00
8.8505e-04 2.7276e-04 0.0000e+00
8.8731e-04 4.1820e-04 0.0000e+00
8.9041e-04 5.6228e-04 0.0000e+00
8.9411e-04 7.0520e-04 0.0000e+00
8.9898e-04 8.4631e-04 0.0000e+00
9.0552e-04 9.8465e-04 0.0000e+00
9.1368e-04 1.1205e-03 0.0000e+00
9.2267e-04 1.2548e-03 0.0000e+00
9.3173e-04 1.3858e-03 0.0000e+00
9.4030e-04 1.5150e-03 0.0000e+00
9.4815e-04 1.6426e-03 0.0000e+00
9.5509e-04 1.7689e-03 0.0000e+00
9.6110e-04 1.8940e-03 0.0000e+00
9.6619e-04 2.0179e-03 0.0000e+00
9.7046e-04 2.1409e-03 0.0000e+00
9.7399e-04 2.2629e-03 0.0000e+00
9.7691e-04 2.3841e-03 0.0000e+00
9.7929e-04 2.5046e-03 0.0000e+00
9.8122e-04 2.6245e-03 0.0000e+00
9.8276e-04 2.7439e-03 0.0000e+00
9.8396e-04 2.8629e-03 0.0000e+00
9.8485e-04 2.9817e-03 0.0000e+00
9.8543e-04 3.1002e-03 0.0000e+00
9.8572e-04 3.2186e-03 0.0000e+00
9.8572e-04 3.3377e-03 0.0000e+00
9.8543e-04 3.4561e-03 0.0000e+00
9.8485e-04 3.5746e-03 0.0000e+00
9.8396e-04 3.6934e-03 0.0000e+00
9.8276e-04 3.8124e-03 0.0000e+00
9.8122e-04 3.9318e-03 0.0000e+00
9.7929e-04 4.0517e-03 0.0000e+00
9.7691e-04 4.1722e-03 0.0000e+00
9.7399e-04 4.2934e-03 0.0000e+00
9.7046e-04 4.4154e-03 0.0000e+00
9.6619e-04 4.5384e-03 0.0000e+00
9.6110e-04 4.6623e-03 0.0000e+00
9.5509e-04 4.7874e-03 0.0000e+00
9.4816e-04 4.9137e-03 0.0000e+00
9.4031e-04 5.0413e-03 0.0000e+00
9.3174e-04 5.1705e-03 0.0000e+00
9.2269e-04 5.3015e-03 0.0000e+00
9.1369e-04 5.4357e-03 0.0000e+00
9.0554e-04 5.5716e-03 0.0000e+00
8.9899e-04 5.7103e-03 0.0000e+00
8.9412e-04 5.8514e-03 0.0000e+00
8.9043e-04 5.9942e-03 0.0000e+00
8.8732e-04 6.1383e-03 0.0000e+00
8.8506e-04 6.2836e-03 0.0000e+00
8.8358e-04 6.4298e-03 0.0000e+00
1.0304e-03 1.2652e-04 0.0000e+00
1.0324e-03 2.7260e-04 0.0000e+00
1.0355e-03 4.1761e-04 0.0000e+00
1.0394e-03 5.6125e-04 0.0000e+00
1.0441e-03 7.0340e-04 0.0000e+00
1.0504e-03 8.4350e-04 0.0000e+00
1.0588e-03 9.8029e-04 0.0000e+00
1.0684e-03 1.1148e-03 0.0000e+00
1.0785e-03 1.2478e-03 0.0000e+00
1.0882e-03 1.3782e-03 0.0000e+00
1.0973e-03 1.5070e-03 0.0000e+00
1.1055e-03 1.6346e-03 0.0000e+00
1.1128e-03 1.7611e-03 0.0000e+00
1.1193e-03 1.8866e-03 0.0000e+00
1.1249e-03 2.0111e-03 0.0000e+00
1.1297e-03 2.1346e-03 0.0000e+00
1.1338e-03 2.2573e-03 0.0000e+00
1.1372e-03 2.3792e-03 0.0000e+00
1.1401e-03 2.5004e-03 0.0000e+00
1.1425e-03 2.6210e-03 0.0000e+00
1.1443e-03 2.7411e-03 0.0000e+00
1.1458e-03 2.8607e-03 0.0000e+00
1.1469e-03 2.9801e-03 0.0000e+00
1.1476e-03 3.0992e-03 0.0000e+00
1.1480e-03 3.2183e-03 0.0000e+00
1.1480e-03 3.3380e-03 0.0000e+00
1.1476e-03 3.4570e-03 0.0000e+00
1.1469e-03 3.5762e-03 0.0000e+00
1.1458e-03 3.6956e-03 0.0000e+00
1.1443e-03 3.8152e-03 0.0000e+00
1.1425e-03 3.9353e-03 0.0000e+00
1.1401e-03 4.0559e-03 0.0000e+00
1.1372e-03 4.1771e-03 0.0000e+00
1.1338e-03 4.2990e-03 0.0000e+00
1.1297e-03 4.4217e-03 0.0000e+00
1.1249e-03 4.5452e-03 0.0000e+00
1.1193e-03 4.6697e-03 0.0000e+00
1.1128e-03 4.7952e-03 0.0000e+00
1.1055e-03 4.9217e-03 0.0000e+00
1.0973e-03 5.0493e-03 0.0000e+00
1.0882e-03 5.1781e-03 0.0000e+00
1.0785e-03 5.3084e-03 0.0000e+00
1.0684e-03 5.4415e-03 0.0000e+00
1.0588e-03 5.5760e-03 0.0000e+00
1.0504e-03 5.7132e-03 0.0000e+00
1.0441e-03 5.8532e-03 0.0000e+00
1.0394e-03 5.9952e-03 0.0000e+00
1.0355e-03 6.1389e-03 0.0000e+00
1.0324e-03 6.2838e-03 0.0000e+00
1.0304e-03 6.4299e-03 0.0000e+00
1.1778e-03 1.2650e-04 0.0000e+00
1.1805e-03 2.7228e-04 0.0000e+00
1.1845e-03 4.1688e-04 0.0000e+00
1.1892e-03 5.5986e-04 0.0000e+00
1.1952e-03 7.0114e-04 0.0000e+00
1.2036e-03 8.3964e-04 0.0000e+00
1.2137e-03 9.7487e-04 0.0000e+00
1.2246e-03 1.1079e-03 0.0000e+00
1.2353e-03 1.2400e-03 0.0000e+00
1.2454e-03 1.3698e-03 0.0000e+00
1.2546e-03 1.4985e-03 0.0000e+00
1.2631e-03 1.6262e-03 0.0000e+00
1.2707e-03 1.7530e-03 0.0000e+00
1.2775e-03 1.8789e-03 0.0000e+00
1.2836e-03 2.0039e-03 0.0000e+00
1.2889e-03 2.1280e-03 0.0000e+00
1.2935e-03 2.2513e-03 0.0000e+00
1.2974e-03 2.3739e-03 0.0000e+00
1.3007e-03 2.4958e-03 0.0000e+00
1.3035e-03 2.6171e-03 0.0000e+00
1.3057e-03 2.7379e-03 0.0000e+00
1.3075e-03 2.8583e-03 0.0000e+00
1.3087e-03 2.9784e-03 0.0000e+00
1.3096e-03 3.0982e-03 0.0000e+00
1.3100e-03 3.2179e-03 0.0000e+00
1.3100e-03 3.3384e-03 0.0000e+00
1.3096e-03 3.4581e-03 0.0000e+00
1.3087e-03 3.5779e-03 0.0000e+00
1.3075e-03 3.6980e-03 0.0000e+00
1.3057e-03 3.8184e-03 0.0000e+00
1.3035e-03 3.9392e-03 0.0000e+00
1.3007e-03 4.0605e-03 0.0000e+00
1.2974e-03 4.1824e-03 0.0000e+00
1.2935e-03 4.3049e-03 0.0000e+00
1.2889e-03 4.4283e-03 0.0000e+00
1.2836e-03 4.5524e-03 0.0000e+00
1.2775e-03 4.6774e-03 0.0000e+00
1.2707e-03 4.8033e-03 0.0000e+00
1.2631e-03 4.9301e-03 0.0000e+00
1.2546e-03 5.0578e-03 0.0000e+00
1.2454e-03 5.1865e-03 0.0000e+00
1.2353e-03 5.3162e-03 0.0000e+00
1.2246e-03 5.4484e-03 0.0000e+00
1.2137e-03 5.5814e-03 0.0000e+00
1.2036e-03 5.7170e-03 0.0000e+00
1.1952e-03 5.8554e-03 0.0000e+00
1.1892e-03 5.9966e-03 0.0000e+00
1.1845e-03 6.1396e-03 0.0000e+00
1.1805e-03 6.2841e-03 0.0000e+00
1.1778e-03 6.4299e-03 0.0000e+00
1.3262e-03 1.2640e-04 0.0000e+00
1.3300e-03 2.7188e-04 0.0000e+00
1.3350e-03 4.1585e-04 0.0000e+00
1.3408e-03 5.5811e-04 0.0000e+00
1.3488e-03 6.9785e-04 0.0000e+00
1.3592e-03 8.3461e-04 0.0000e+00
1.3708e-03 9.6805e-04 0.0000e+00
1.3824e-03 1.1000e-03 0.0000e+00
1.3935e-03 1.2314e-03 0.0000e+00
1.4036e-03 1.3609e-03 0.0000e+00
1.4129e-03 1.4896e-03 0.0000e+00
1.4214e-03 1.6175e-03 0.0000e+00
1.4293e-03 1.7446e-03 0.0000e+00
1.4364e-03 1.8709e-03 0.0000e+00
1.4428e-03 1.9964e-03 0.0000e+00
1.4486e-03 2.1211e-03 0.0000e+00
1.4536e-03 2.2451e-03 0.0000e+00
1.4580e-03 2.3683e-03 0.0000e+00
1.4617e-03 2.4909e-03 0.0000e+00
1.4649e-03 2.6130e-03 0.0000e+00
1.4675e-03 2.7345e-03 0.0000e+00
1.4695e-03 2.8556e-03 0.0000e+00
1.4710e-03 2.9765e-03 0.0000e+00
1.4720e-03 3.0971e-03 0.0000e+00
1.4725e-03 3.2175e-03 0.0000e+00
1.4725e-03 3.3388e-03 0.0000e+00
1.4720e-03 3.4592e-03 0.0000e+00
1.4710e-03 3.5798e-03 0.0000e+00
1.4695e-03 3.7006e-03 0.0000e+00
1.4675e-03 3.8218e-03 0.0000e+00
1.4649e-03 3.9433e-03 0.0000e+00
1.4617e-03 4.0654e-03 0.0000e+00
1.4580e-03 4.1880e-03 0.0000e+00
1.4536e-03 4.3112e-03 0.0000e+00
1.4486e-03 4.4352e-03 0.0000e+00
1.4428e-03 4.5599e-03 0.0000e+00
1.4364e-03 4.6854e-03 0.0000e+00
1.4293e-03 4.8117e-03 0.0000e+00
1.4214e-03 4.9387e-03 0.0000e+00
1.4129e-03 5.0667e-03 0.0000e+00
1.4036e-03 5.1954e-03 0.0000e+00
1.3935e-03 5.3249e-03 0.0000e+00
1.3824e-03 5.4563e-03 0.0000e+00
1.3708e-03 5.5882e-03 0.0000e+00
1.3592e-03 5.7220e-03 0.0000e+00
1.3488e-03 5.8587e-03 0.0000e+00
1.3408e-03 5.9984e-03 0.0000e+00
1.3350e-03 6.1406e-03 0.0000e+00
1.3300e-03 6.2845e-03 0.0000e+00
1.3262e-03 6.4300e-03 0.0000e+00
1.4739e-03 1.2628e-04 0.0000e+00
1.4789e-03 2.7122e-04 0.0000e+00
1.4849e-03 4.1462e-04 0.0000e+00
1.4925e-03 5.5549e-04 0.0000e+00
1.5029e-03 6.9338e-04 0.0000e+00
1.5153e-03 8.2800e-04 0.0000e+00
1.5277e-03 9.6006e-04 0.0000e+00
1.5396e-03 1.0911e-03 0.0000e+00
1.5505e-03 1.2222e-03 0.0000e+00
1.5606e-03 1.3517e-03 0.0000e+00
1.5698e-03 1.4806e-03 0.0000e+00
1.5785e-03 1.6087e-03 0.0000e+00
1.5865e-03 1.7362e-03 0.0000e+00
1.5939e-03 1.8629e-03 0.0000e+00
1.6006e-03 1.9888e-03 0.0000e+00
1.6067e-03 2.1141e-03 0.0000e+00
1.6121e-03 2.2386e-03 0.0000e+00
1.6169e-03 2.3625e-03 0.0000e+00