# vtk DataFile Version 3.0
VTK Example
ASCII
DATASET UNSTRUCTURED_GRID
POINTS 927 float 
0.00014707 0.000142228 0.0
0.0002941 0.000142345 0.0
0.000441209 0.000142318 0.0
0.000588301 0.000142329 0.0
0.000735381 0.00014233 0.0
0.000882464 0.000142328 0.0
0.00102954 0.000142316 0.0
0.00117663 0.000142296 0.0
0.00132371 0.000142278 0.0
0.0014708 0.000142246 0.0
0.00161789 0.000142212 0.0
0.001765 0.000142163 0.0
0.00191213 0.000142116 0.0
0.00205927 0.000142059 0.0
0.00220647 0.000142004 0.0
0.00235108 0.000141685 0.0
0.00249967 0.000132111 0.0
0.000147112 0.000288264 0.0
0.000294138 0.000288322 0.0
0.000441277 0.000288345 0.0
0.000588384 0.000288345 0.0
0.000735498 0.00028835 0.0
0.000882607 0.000288343 0.0
0.00102972 0.000288341 0.0
0.00117683 0.000288333 0.0
0.00132395 0.000288327 0.0
0.00147108 0.000288312 0.0
0.00161822 0.000288293 0.0
0.00176538 0.00028826 0.0
0.00191255 0.00028822 0.0
0.00205978 0.000288136 0.0
0.0022075 0.000287566 0.0
0.00236464 0.000278596 0.0
0.00252718 0.000260963 0.0
0.00264698 0.000281423 0.0
0.000147103 0.000435093 0.0
0.000294241 0.000435082 0.0
0.000441356 0.000435092 0.0
0.000588501 0.000435094 0.0
0.000735637 0.000435088 0.0
0.000882783 0.000435084 0.0
0.00102993 0.000435073 0.0
0.00117708 0.000435065 0.0
0.00132424 0.000435054 0.0
0.00147141 0.000435031 0.0
0.00161859 0.000435001 0.0
0.00176578 0.000434946 0.0
0.00191307 0.000434834 0.0
0.00206094 0.000434139 0.0
0.00221274 0.000429591 0.0
0.00236614 0.000421178 0.0
0.00252174 0.000407957 0.0
0.00266377 0.000401466 0.0
0.00014715 0.000581989 0.0
0.000294296 0.000581992 0.0
0.000441463 0.000581983 0.0
0.000588624 0.000581973 0.0
0.000735802 0.000581964 0.0
0.000882978 0.000581948 0.0
0.00103016 0.000581934 0.0
0.00117735 0.000581911 0.0
0.00132456 0.000581891 0.0
0.00147177 0.000581855 0.0
0.00161901 0.000581783 0.0
0.0017664 0.000581598 0.0
0.00191454 0.000580723 0.0
0.00206594 0.000576713 0.0
0.00221871 0.000569676 0.0
0.00236925 0.000563756 0.0
0.00251752 0.000560063 0.0
0.00267126 0.000557222 0.0
0.000147181 0.00072884 0.0
0.000294371 0.000728824 0.0
0.000441561 0.000728809 0.0
0.000588764 0.000728791 0.0
0.000735968 0.000728767 0.0
0.000883187 0.000728746 0.0
0.00103041 0.000728715 0.0
0.00117765 0.000728681 0.0
0.00132492 0.000728623 0.0
0.00147226 0.00072853 0.0
0.00161981 0.000728241 0.0
0.00176836 0.000727064 0.0
0.00191971 0.000723363 0.0
0.00207196 0.000717487 0.0
0.0022225 0.000712069 0.0
0.00237132 0.000708127 0.0
0.00252524 0.000708613 0.0
0.00268869 0.000716489 0.0
0.000147222 0.000875611 0.0
0.00029444 0.000875593 0.0
0.00044167 0.000875566 0.0
0.000588905 0.000875535 0.0
0.000736155 0.000875501 0.0
0.000883422 0.00087545 0.0
0.00103072 0.000875398 0.0
0.00117807 0.000875308 0.0
0.00132553 0.000875145 0.0
0.00147336 0.000874654 0.0
0.00162248 0.000873145 0.0
0.0017739 0.00086957 0.0
0.00192568 0.000864557 0.0
0.00207613 0.000859861 0.0
0.00222514 0.000856055 0.0
0.00237328 0.000852984 0.0
0.00251818 0.000850241 0.0
0.00266608 0.000847424 0.0
0.000147265 0.00102231 0.0
0.000294529 0.00102229 0.0
0.000441795 0.00102224 0.0
0.000589088 0.00102219 0.0
0.000736412 0.00102212 0.0
0.000883778 0.00102203 0.0
0.00103122 0.00102188 0.0
0.00117887 0.0010216 0.0
0.00132711 0.00102083 0.0
0.00147676 0.00101896 0.0
0.00162817 0.0010154 0.0
0.00177955 0.00101103 0.0
0.00192988 0.00100696 0.0
0.00207905 0.00100349 0.0
0.0022274 0.00100058 0.0
0.00237537 0.000997877 0.0
0.0025275 0.000991471 0.0
0.00268281 0.000981228 0.0
0.00280046 0.00100358 0.0
0.000147324 0.0011689 0.0
0.000294655 0.00116886 0.0
0.000442 0.00116881 0.0
0.000589373 0.0011687 0.0
0.000736828 0.00116855 0.0
0.00088442 0.00116832 0.0
0.00103232 0.00116784 0.0
0.00118103 0.00116673 0.0
0.00133116 0.00116452 0.0
0.00148247 0.00116102 0.0
0.00163347 0.00115708 0.0
0.00178364 0.00115344 0.0
0.00193289 0.00115029 0.0
0.00208146 0.00114762 0.0
0.00222961 0.00114514 0.0
0.00237756 0.00114265 0.0
0.00252542 0.00114003 0.0
0.00267809 0.00112989 0.0
0.00281842 0.00112341 0.0
0.000147415 0.00131533 0.0
0.000294841 0.00131528 0.0
0.000442322 0.00131516 0.0
0.000589891 0.00131497 0.0
0.000737669 0.00131455 0.0
0.000885942 0.00131383 0.0
0.00103517 0.00131235 0.0
0.0011856 0.00130985 0.0
0.00133671 0.0013064 0.0
0.00148739 0.0013028 0.0
0.00163742 0.00129947 0.0
0.00178667 0.00129655 0.0
0.00193538 0.00129405 0.0
0.00208371 0.00129178 0.0
0.00223185 0.00128957 0.0
0.00237985 0.00128724 0.0
0.00252773 0.00128475 0.0
0.00267505 0.00128204 0.0
0.00282309 0.00127556 0.0
0.000147574 0.00146154 0.0
0.000295189 0.00146138 0.0
0.000442977 0.00146108 0.0
0.000591097 0.00146053 0.0
0.000739774 0.00145951 0.0
0.000889392 0.00145764 0.0
0.00103993 0.00145496 0.0
0.0011908 0.00145158 0.0
0.00134125 0.0014482 0.0
0.00149117 0.00144509 0.0
0.00164044 0.00144236 0.0
0.00178925 0.00144 0.0
0.0019377 0.00143787 0.0
0.00208597 0.00143585 0.0
0.00223411 0.00143381 0.0
0.00238214 0.00143165 0.0
0.00253006 0.00142931 0.0
0.00267906 0.00142677 0.0
0.0028374 0.00142751 0.0
0.000147935 0.00160718 0.0
0.000296045 0.0016068 0.0
0.000444545 0.001606 0.0
0.000593661 0.00160473 0.0
0.000743574 0.00160266 0.0
0.000894043 0.00159982 0.0
0.00104466 0.0015965 0.0
0.00119497 0.00159328 0.0
0.00134481 0.00159029 0.0
0.00149411 0.0015877 0.0
0.00164303 0.00158546 0.0
0.00179162 0.00158346 0.0
0.00194001 0.00158161 0.0
0.00208824 0.00157977 0.0
0.00223638 0.0015779 0.0
0.00238441 0.0015759 0.0
0.0025323 0.00157377 0.0
0.00268752 0.00157498 0.0
0.00285695 0.00158301 0.0
0.000148692 0.00175167 0.0
0.000297698 0.0017508 0.0
0.000447179 0.00174933 0.0
0.000597262 0.00174709 0.0
0.000747759 0.0017443 0.0
0.000898301 0.00174111 0.0
0.00104849 0.00173797 0.0
0.00119828 0.00173508 0.0
0.00134764 0.00173258 0.0
0.00149665 0.00173041 0.0
0.00164537 0.00172853 0.0
0.00179389 0.00172683 0.0
0.00194225 0.00172519 0.0
0.0020905 0.00172355 0.0
0.00223862 0.00172185 0.0
0.0023866 0.00172005 0.0
0.00253443 0.00171814 0.0
0.00267968 0.00171614 0.0
0.00283042 0.00171389 0.0
0.000149804 0.00189425 0.0
0.000299878 0.00189295 0.0
0.00045028 0.0018908 0.0
0.000600866 0.0018881 0.0
0.000751407 0.00188508 0.0
0.000901656 0.00188214 0.0
0.00105153 0.00187938 0.0
0.00120097 0.00187697 0.0
0.00135008 0.00187487 0.0
0.00149892 0.00187308 0.0
0.00164756 0.00187149 0.0
0.00179605 0.00187003 0.0
0.00194442 0.00186862 0.0
0.00209264 0.00186719 0.0
0.00224071 0.00186571 0.0
0.00238864 0.00186414 0.0
0.00253642 0.00186246 0.0
0.00268855 0.001857 0.0
0.00284549 0.00184768 0.0
0.0029638 0.00187076 0.0
0.000150967 0.00203472 0.0
0.000302016 0.00203311 0.0
0.000453013 0.00203084 0.0
0.000603814 0.00202816 0.0
0.000754263 0.00202548 0.0
0.000904318 0.00202294 0.0
0.00105396 0.00202072 0.0
0.00120326 0.00201876 0.0
0.00135225 0.00201708 0.0
0.00150101 0.00201561 0.0
0.00164961 0.00201431 0.0
0.00179808 0.00201309 0.0
0.0019464 0.00201191 0.0
0.00209459 0.00201072 0.0
0.00224263 0.00200949 0.0
0.00239051 0.00200816 0.0
0.00253824 0.00200673 0.0
0.0026858 0.0020052 0.0
0.00283833 0.00199623 0.0
0.00297831 0.00199087 0.0
0.000151917 0.00217323 0.0
0.000303661 0.0021718 0.0
0.000455059 0.0021698 0.0
0.000605994 0.00216765 0.0
0.000756439 0.0021655 0.0
0.000906412 0.00216358 0.0
0.00105598 0.00216186 0.0
0.00120521 0.00216041 0.0
0.00135417 0.00215913 0.0
0.00150291 0.00215801 0.0
0.00165149 0.00215699 0.0
0.00179991 0.00215603 0.0
0.00194819 0.0021551 0.0
0.00209634 0.00215417 0.0
0.00224434 0.00215319 0.0
0.00239218 0.00215212 0.0
0.00253986 0.00215096 0.0
0.00268737 0.00214968 0.0
0.00283339 0.00214829 0.0
0.00297663 0.0021432 0.0
0.000152551 0.00231042 0.0
0.000304752 0.00230938 0.0
0.000456444 0.00230807 0.0
0.000607546 0.00230659 0.0
0.000758069 0.00230521 0.0
0.000908077 0.00230392 0.0
0.00105766 0.00230282 0.0
0.00120689 0.00230185 0.0
0.00135586 0.00230101 0.0
0.00150459 0.00230024 0.0
0.00165314 0.00229955 0.0
0.00180152 0.00229888 0.0
0.00194976 0.00229822 0.0
0.00209786 0.00229754 0.0
0.00224581 0.00229682 0.0
0.00239361 0.00229604 0.0
0.00254126 0.00229514 0.0
0.00268874 0.00229413 0.0
0.00283546 0.00229302 0.0
0.00297946 0.00229186 0.0
0.000152922 0.00244669 0.0
0.000305428 0.00244631 0.0
0.00045736 0.00244573 0.0
0.00060865 0.00244516 0.0
0.000759301 0.00244455 0.0
0.000909407 0.00244403 0.0
0.00105904 0.00244353 0.0
0.00120832 0.00244312 0.0
0.00135728 0.00244272 0.0
0.00150601 0.00244236 0.0
0.00165453 0.00244201 0.0
0.00180288 0.00244165 0.0
0.00195108 0.00244128 0.0
0.00209913 0.00244087 0.0
0.00224704 0.00244042 0.0
0.00239481 0.0024399 0.0
0.00254243 0.00243928 0.0
0.00268986 0.00243856 0.0
0.00283704 0.00243776 0.0
0.00298355 0.00243687 0.0
0.000153141 0.00258251 0.0
0.000305846 0.00258271 0.0
0.000457987 0.00258303 0.0
0.000609444 0.00258331 0.0
0.00076025 0.00258362 0.0
0.000910447 0.00258384 0.0
0.00106016 0.00258406 0.0
0.00120945 0.00258419 0.0
0.00135844 0.00258431 0.0
0.00150714 0.00258436 0.0
0.00165565 0.00258439 0.0
0.00180396 0.00258436 0.0
0.00195213 0.00258429 0.0
0.00210014 0.00258417 0.0
0.00224802 0.00258398 0.0
0.00239575 0.00258373 0.0
0.00254333 0.00258339 0.0
0.00269073 0.00258298 0.0
0.00283815 0.00258248 0.0
0.00298598 0.00258191 0.0
0.000153255 0.00271794 0.0
0.000306113 0.00271886 0.0
0.000458389 0.00271994 0.0
0.00061001 0.00272122 0.0
0.00076092 0.00272237 0.0
0.000911225 0.00272348 0.0
0.00106097 0.00272438 0.0
0.00121031 0.00272517 0.0
0.00135927 0.00272578 0.0
0.00150799 0.00272631 0.0
0.00165645 0.00272671 0.0
0.00180476 0.00272703 0.0
0.00195288 0.00272727 0.0
0.00210087 0.00272743 0.0
0.00224871 0.00272753 0.0
0.00239642 0.00272755 0.0
0.00254396 0.00272751 0.0
0.00269132 0.00272739 0.0
0.00283875 0.00272721 0.0
0.00298667 0.00272696 0.0
0.000153276 0.00285332 0.0
0.000306174 0.00285473 0.0
0.000458561 0.00285673 0.0
0.000610256 0.00285884 0.0
0.000761292 0.00286101 0.0
0.000911641 0.00286291 0.0
0.00106147 0.00286462 0.0
0.0012108 0.00286601 0.0
0.0013598 0.00286722 0.0
0.00150848 0.00286818 0.0
0.00165696 0.002869 0.0
0.00180522 0.00286967 0.0
0.00195334 0.00287023 0.0
0.0021013 0.00287069 0.0
[...]
POINT_DATA 927
VECTORS Position float
1.4707e-04 1.4223e-04 0.0000e+00
2.9410e-04 1.4235e-04 0.0000e+00
4.4121e-04 1.4232e-04 0.0000e+00
5.8830e-04 1.4233e-04 0.0000e+00
7.3538e-04 1.4233e-04 0.0000e+00
8.8246e-04 1.4233e-04 0.0000e+00
1.0295e-03 1.4232e-04 0.0000e+00
1.1766e-03 1.4230e-04 0.0000e+00
1.3237e-03 1.4228e-04 0.0000e+00
1.4708e-03 1.4225e-04 0.0000e+00
1.6179e-03 1.4221e-04 0.0000e+00
1.7650e-03 1.4216e-04 0.0000e+00
1.9121e-03 1.4212e-04 0.0000e+00
2.0593e-03 1.4206e-04 0.0000e+00
2.2065e-03 1.4200e-04 0.0000e+00
2.3511e-03 1.4169e-04 0.0000e+00
2.4997e-03 1.3211e-04 0.0000e+00
1.4711e-04 2.8826e-04 0.0000e+00
2.9414e-04 2.8832e-04 0.0000e+00
4.4128e-04 2.8835e-04 0.0000e+00
5.8838e-04 2.8834e-04 0.0000e+00
7.3550e-04 2.8835e-04 0.0000e+00
8.8261e-04 2.8834e-04 0.0000e+00
1.0297e-03 2.8834e-04 0.0000e+00
1.1768e-03 2.8833e-04 0.0000e+00
1.3240e-03 2.8833e-04 0.0000e+00
1.4711e-03 2.8831e-04 0.0000e+00
1.6182e-03 2.8829e-04 0.0000e+00
1.7654e-03 2.8826e-04 0.0000e+00
1.9125e-03 2.8822e-04 0.0000e+00
2.0598e-03 2.8814e-04 0.0000e+00
2.2075e-03 2.8757e-04 0.0000e+00
2.3646e-03 2.7860e-04 0.0000e+00
2.5272e-03 2.6096e-04 0.0000e+00
2.6470e-03 2.8142e-04 0.0000e+00
1.4710e-04 4.3509e-04 0.0000e+00
2.9424e-04 4.3508e-04 0.0000e+00
4.4136e-04 4.3509e-04 0.0000e+00
5.8850e-04 4.3509e-04 0.0000e+00
7.3564e-04 4.3509e-04 0.0000e+00
8.8278e-04 4.3508e-04 0.0000e+00
1.0299e-03 4.3507e-04 0.0000e+00
1.1771e-03 4.3507e-04 0.0000e+00
1.3242e-03 4.3505e-04 0.0000e+00
1.4714e-03 4.3503e-04 0.0000e+00
1.6186e-03 4.3500e-04 0.0000e+00
1.7658e-03 4.3495e-04 0.0000e+00
1.9131e-03 4.3483e-04 0.0000e+00
2.0609e-03 4.3414e-04 0.0000e+00
2.2127e-03 4.2959e-04 0.0000e+00
2.3661e-03 4.2118e-04 0.0000e+00
2.5217e-03 4.0796e-04 0.0000e+00
2.6638e-03 4.0147e-04 0.0000e+00
1.4715e-04 5.8199e-04 0.0000e+00
2.9430e-04 5.8199e-04 0.0000e+00
4.4146e-04 5.8198e-04 0.0000e+00
5.8862e-04 5.8197e-04 0.0000e+00
7.3580e-04 5.8196e-04 0.0000e+00
8.8298e-04 5.8195e-04 0.0000e+00
1.0302e-03 5.8193e-04 0.0000e+00
1.1774e-03 5.8191e-04 0.0000e+00
1.3246e-03 5.8189e-04 0.0000e+00
1.4718e-03 5.8186e-04 0.0000e+00
1.6190e-03 5.8178e-04 0.0000e+00
1.7664e-03 5.8160e-04 0.0000e+00
1.9145e-03 5.8072e-04 0.0000e+00
2.0659e-03 5.7671e-04 0.0000e+00
2.2187e-03 5.6968e-04 0.0000e+00
2.3693e-03 5.6376e-04 0.0000e+00
2.5175e-03 5.6006e-04 0.0000e+00
2.6713e-03 5.5722e-04 0.0000e+00
1.4718e-04 7.2884e-04 0.0000e+00
2.9437e-04 7.2882e-04 0.0000e+00
4.4156e-04 7.2881e-04 0.0000e+00
5.8876e-04 7.2879e-04 0.0000e+00
7.3597e-04 7.2877e-04 0.0000e+00
8.8319e-04 7.2875e-04 0.0000e+00
1.0304e-03 7.2872e-04 0.0000e+00
1.1777e-03 7.2868e-04 0.0000e+00
1.3249e-03 7.2862e-04 0.0000e+00
1.4723e-03 7.2853e-04 0.0000e+00
1.6198e-03 7.2824e-04 0.0000e+00
1.7684e-03 7.2706e-04 0.0000e+00
1.9197e-03 7.2336e-04 0.0000e+00
2.0720e-03 7.1749e-04 0.0000e+00
2.2225e-03 7.1207e-04 0.0000e+00
2.3713e-03 7.0813e-04 0.0000e+00
2.5252e-03 7.0861e-04 0.0000e+00
2.6887e-03 7.1649e-04 0.0000e+00
1.4722e-04 8.7561e-04 0.0000e+00
2.9444e-04 8.7559e-04 0.0000e+00
4.4167e-04 8.7557e-04 0.0000e+00
5.8890e-04 8.7553e-04 0.0000e+00
7.3615e-04 8.7550e-04 0.0000e+00
8.8342e-04 8.7545e-04 0.0000e+00
1.0307e-03 8.7540e-04 0.0000e+00
1.1781e-03 8.7531e-04 0.0000e+00
1.3255e-03 8.7515e-04 0.0000e+00
1.4734e-03 8.7465e-04 0.0000e+00
1.6225e-03 8.7315e-04 0.0000e+00
1.7739e-03 8.6957e-04 0.0000e+00
1.9257e-03 8.6456e-04 0.0000e+00
2.0761e-03 8.5986e-04 0.0000e+00
2.2251e-03 8.5605e-04 0.0000e+00
2.3733e-03 8.5298e-04 0.0000e+00
2.5182e-03 8.5024e-04 0.0000e+00
2.6661e-03 8.4742e-04 0.0000e+00
1.4727e-04 1.0223e-03 0.0000e+00
2.9453e-04 1.0223e-03 0.0000e+00
4.4180e-04 1.0222e-03 0.0000e+00
5.8909e-04 1.0222e-03 0.0000e+00
7.3641e-04 1.0221e-03 0.0000e+00
8.8378e-04 1.0220e-03 0.0000e+00
1.0312e-03 1.0219e-03 0.0000e+00
1.1789e-03 1.0216e-03 0.0000e+00
1.3271e-03 1.0208e-03 0.0000e+00
1.4768e-03 1.0190e-03 0.0000e+00
1.6282e-03 1.0154e-03 0.0000e+00
1.7796e-03 1.0110e-03 0.0000e+00
1.9299e-03 1.0070e-03 0.0000e+00
2.0791e-03 1.0035e-03 0.0000e+00
2.2274e-03 1.0006e-03 0.0000e+00
2.3754e-03 9.9788e-04 0.0000e+00
2.5275e-03 9.9147e-04 0.0000e+00
2.6828e-03 9.8123e-04 0.0000e+00
2.8005e-03 1.0036e-03 0.0000e+00
1.4732e-04 1.1689e-03 0.0000e+00
2.9466e-04 1.1689e-03 0.0000e+00
4.4200e-04 1.1688e-03 0.0000e+00
5.8937e-04 1.1687e-03 0.0000e+00
7.3683e-04 1.1686e-03 0.0000e+00
8.8442e-04 1.1683e-03 0.0000e+00
1.0323e-03 1.1678e-03 0.0000e+00
1.1810e-03 1.1667e-03 0.0000e+00
1.3312e-03 1.1645e-03 0.0000e+00
1.4825e-03 1.1610e-03 0.0000e+00
1.6335e-03 1.1571e-03 0.0000e+00
1.7836e-03 1.1534e-03 0.0000e+00
1.9329e-03 1.1503e-03 0.0000e+00
2.0815e-03 1.1476e-03 0.0000e+00
2.2296e-03 1.1451e-03 0.0000e+00
2.3776e-03 1.1427e-03 0.0000e+00
2.5254e-03 1.1400e-03 0.0000e+00
2.6781e-03 1.1299e-03 0.0000e+00
2.8184e-03 1.1234e-03 0.0000e+00
1.4741e-04 1.3153e-03 0.0000e+00
2.9484e-04 1.3153e-03 0.0000e+00
4.4232e-04 1.3152e-03 0.0000e+00
5.8989e-04 1.3150e-03 0.0000e+00
7.3767e-04 1.3145e-03 0.0000e+00
8.8594e-04 1.3138e-03 0.0000e+00
1.0352e-03 1.3123e-03 0.0000e+00
1.1856e-03 1.3099e-03 0.0000e+00
1.3367e-03 1.3064e-03 0.0000e+00
1.4874e-03 1.3028e-03 0.0000e+00
1.6374e-03 1.2995e-03 0.0000e+00
1.7867e-03 1.2966e-03 0.0000e+00
1.9354e-03 1.2940e-03 0.0000e+00
2.0837e-03 1.2918e-03 0.0000e+00
2.2319e-03 1.2896e-03 0.0000e+00
2.3798e-03 1.2872e-03 0.0000e+00
2.5277e-03 1.2847e-03 0.0000e+00
2.6750e-03 1.2820e-03 0.0000e+00
2.8231e-03 1.2756e-03 0.0000e+00
1.4757e-04 1.4615e-03 0.0000e+00
2.9519e-04 1.4614e-03 0.0000e+00
4.4298e-04 1.4611e-03 0.0000e+00
5.9110e-04 1.4605e-03 0.0000e+00
7.3977e-04 1.4595e-03 0.0000e+00
8.8939e-04 1.4576e-03 0.0000e+00
1.0399e-03 1.4550e-03 0.0000e+00
1.1908e-03 1.4516e-03 0.0000e+00
1.3412e-03 1.4482e-03 0.0000e+00
1.4912e-03 1.4451e-03 0.0000e+00
1.6404e-03 1.4424e-03 0.0000e+00
1.7892e-03 1.4400e-03 0.0000e+00
1.9377e-03 1.4379e-03 0.0000e+00
2.0860e-03 1.4359e-03 0.0000e+00
2.2341e-03 1.4338e-03 0.0000e+00
2.3821e-03 1.4317e-03 0.0000e+00
2.5301e-03 1.4293e-03 0.0000e+00
2.6791e-03 1.4268e-03 0.0000e+00
2.8374e-03 1.4275e-03 0.0000e+00
1.4794e-04 1.6072e-03 0.0000e+00
2.9604e-04 1.6068e-03 0.0000e+00
4.4455e-04 1.6060e-03 0.0000e+00
5.9366e-04 1.6047e-03 0.0000e+00
7.4357e-04 1.6027e-03 0.0000e+00
8.9404e-04 1.5998e-03 0.0000e+00
1.0447e-03 1.5965e-03 0.0000e+00
1.1950e-03 1.5933e-03 0.0000e+00
1.3448e-03 1.5903e-03 0.0000e+00
1.4941e-03 1.5877e-03 0.0000e+00
1.6430e-03 1.5855e-03 0.0000e+00
1.7916e-03 1.5835e-03 0.0000e+00
1.9400e-03 1.5816e-03 0.0000e+00
2.0882e-03 1.5798e-03 0.0000e+00
2.2364e-03 1.5779e-03 0.0000e+00
2.3844e-03 1.5759e-03 0.0000e+00
2.5323e-03 1.5738e-03 0.0000e+00
2.6875e-03 1.5750e-03 0.0000e+00
2.8570e-03 1.5830e-03 0.0000e+00
1.4869e-04 1.7517e-03 0.0000e+00
2.9770e-04 1.7508e-03 0.0000e+00
4.4718e-04 1.7493e-03 0.0000e+00
5.9726e-04 1.7471e-03 0.0000e+00
7.4776e-04 1.7443e-03 0.0000e+00
8.9830e-04 1.7411e-03 0.0000e+00
1.0485e-03 1.7380e-03 0.0000e+00
1.1983e-03 1.7351e-03 0.0000e+00
1.3476e-03 1.7326e-03 0.0000e+00
1.4967e-03 1.7304e-03 0.0000e+00
1.6454e-03 1.7285e-03 0.0000e+00
1.7939e-03 1.7268e-03 0.0000e+00
1.9423e-03 1.7252e-03 0.0000e+00
2.0905e-03 1.7236e-03 0.0000e+00
2.2386e-03 1.7218e-03 0.0000e+00
2.3866e-03 1.7201e-03 0.0000e+00
2.5344e-03 1.7181e-03 0.0000e+00
2.6797e-03 1.7161e-03 0.0000e+00
2.8304e-03 1.7139e-03 0.0000e+00
1.4980e-04 1.8943e-03 0.0000e+00
2.9988e-04 1.8929e-03 0.0000e+00
4.5028e-04 1.8908e-03 0.0000e+00
6.0087e-04 1.8881e-03 0.0000e+00
7.5141e-04 1.8851e-03 0.0000e+00
9.0166e-04 1.8821e-03 0.0000e+00
1.0515e-03 1.8794e-03 0.0000e+00
1.2010e-03 1.8770e-03 0.0000e+00
1.3501e-03 1.8749e-03 0.0000e+00
1.4989e-03 1.8731e-03 0.0000e+00
1.6476e-03 1.8715e-03 0.0000e+00
1.7960e-03 1.8700e-03 0.0000e+00
1.9444e-03 1.8686e-03 0.0000e+00
2.0926e-03 1.8672e-03 0.0000e+00
2.2407e-03 1.8657e-03 0.0000e+00
2.3886e-03 1.8641e-03 0.0000e+00
2.5364e-03 1.8625e-03 0.0000e+00
2.6886e-03 1.8570e-03 0.0000e+00
2.8455e-03 1.8477e-03 0.0000e+00
2.9638e-03 1.8708e-03 0.0000e+00
1.5097e-04 2.0347e-03 0.0000e+00
3.0202e-04 2.0331e-03 0.0000e+00
4.5301e-04 2.0308e-03 0.0000e+00
6.0381e-04 2.0282e-03 0.0000e+00
7.5426e-04 2.0255e-03 0.0000e+00
9.0432e-04 2.0229e-03 0.0000e+00
1.0540e-03 2.0207e-03 0.0000e+00
1.2033e-03 2.0188e-03 0.0000e+00
1.3522e-03 2.0171e-03 0.0000e+00
1.5010e-03 2.0156e-03 0.0000e+00
1.6496e-03 2.0143e-03 0.0000e+00
1.7981e-03 2.0131e-03 0.0000e+00
1.9464e-03 2.0119e-03 0.0000e+00
2.0946e-03 2.0107e-03 0.0000e+00
2.2426e-03 2.0095e-03 0.0000e+00
2.3905e-03 2.0082e-03 0.0000e+00
2.5382e-03 2.0067e-03 0.0000e+00
2.6858e-03 2.0052e-03 0.0000e+00
2.8383e-03 1.9962e-03 0.0000e+00
2.9783e-03 1.9909e-03 0.0000e+00
1.5192e-04 2.1732e-03 0.0000e+00
3.0366e-04 2.1718e-03 0.0000e+00
4.5506e-04 2.1698e-03 0.0000e+00
6.0599e-04 2.1676e-03 0.0000e+00
7.5644e-04 2.1655e-03 0.0000e+00
9.0641e-04 2.1636e-03 0.0000e+00
1.0560e-03 2.1619e-03 0.0000e+00
1.2052e-03 2.1604e-03 0.0000e+00
1.3542e-03 2.1591e-03 0.0000e+00
1.5029e-03 2.1580e-03 0.0000e+00
1.6515e-03 2.1570e-03 0.0000e+00
1.7999e-03 2.1560e-03 0.0000e+00
1.9482e-03 2.1551e-03 0.0000e+00
2.0963e-03 2.1542e-03 0.0000e+00
2.2443e-03 2.1532e-03 0.0000e+00
2.3922e-03 2.1521e-03 0.0000e+00
2.5399e-03 2.1510e-03 0.0000e+00
2.6874e-03 2.1497e-03 0.0000e+00
2.8334e-03 2.1483e-03 0.0000e+00
2.9766e-03 2.1432e-03 0.0000e+00
1.5255e-04 2.3104e-03 0.0000e+00
3.0475e-04 2.3094e-03 0.0000e+00
4.5644e-04 2.3081e-03 0.0000e+00
6.0755e-04 2.3066e-03 0.0000e+00
7.5807e-04 2.3052e-03 0.0000e+00
9.0808e-04 2.3039e-03 0.0000e+00
1.0577e-03 2.3028e-03 0.0000e+00
1.2069e-03 2.3018e-03 0.0000e+00
1.3559e-03 2.3010e-03 0.0000e+00
1.5046e-03 2.3002e-03 0.0000e+00
1.6531e-03 2.2996e-03 0.0000e+00
1.8015e-03 2.2989e-03 0.0000e+00
1.9498e-03 2.2982e-03 0.0000e+00
2.0979e-03 2.2975e-03 0.0000e+00
2.2458e-03 2.2968e-03 0.0000e+00
2.3936e-03 2.2960e-03 0.0000e+00
2.5413e-03 2.2951e-03 0.0000e+00
2.6887e-03 2.2941e-03 0.0000e+00
2.8355e-03 2.2930e-03 0.0000e+00
2.9795e-03 2.2919e-03 0.0000e+00
1.5292e-04 2.4467e-03 0.0000e+00
3.0543e-04 2.4463e-03 0.0000e+00
4.5736e-04 2.4457e-03 0.0000e+00
6.0865e-04 2.4452e-03 0.0000e+00
7.5930e-04 2.4445e-03 0.0000e+00
9.0941e-04 2.4440e-03 0.0000e+00
1.0590e-03 2.4435e-03 0.0000e+00
1.2083e-03 2.4431e-03 0.0000e+00
1.3573e-03 2.4427e-03 0.0000e+00
1.5060e-03 2.4424e-03 0.0000e+00
1.6545e-03 2.4420e-03 0.0000e+00
1.8029e-03 2.4417e-03 0.0000e+00
1.9511e-03 2.4413e-03 0.0000e+00
2.0991e-03 2.4409e-03 0.0000e+00
2.2470e-03 2.4404e-03 0.0000e+00
2.3948e-03 2.4399e-03 0.0000e+00
2.5424e-03 2.4393e-03 0.0000e+00
2.6899e-03 2.4386e-03 0.0000e+00
2.8370e-03 2.4378e-03 0.0000e+00
2.9835e-03 2.4369e-03 0.0000e+00
1.5314e-04 2.5825e-03 0.0000e+00
3.0585e-04 2.5827e-03 0.0000e+00
4.5799e-04 2.5830e-03 0.0000e+00
6.0944e-04 2.5833e-03 0.0000e+00
7.6025e-04 2.5836e-03 0.0000e+00
9.1045e-04 2.5838e-03 0.0000e+00
1.0602e-03 2.5841e-03 0.0000e+00
1.2095e-03 2.5842e-03 0.0000e+00
1.3584e-03 2.5843e-03 0.0000e+00
1.5071e-03 2.5844e-03 0.0000e+00
1.6557e-03 2.5844e-03 0.0000e+00
1.8040e-03 2.5844e-03 0.0000e+00
1.9521e-03 2.5843e-03 0.0000e+00
2.1001e-03 2.5842e-03 0.0000e+00
2.2480e-03 2.5840e-03 0.0000e+00
2.3958e-03 2.5837e-03 0.0000e+00
2.5433e-03 2.5834e-03 0.0000e+00
2.6907e-03 2.5830e-03 0.0000e+00
2.8381e-03 2.5825e-03 0.0000e+00
2.9860e-03 2.5819e-03 0.0000e+00
1.5326e-04 2.7179e-03 0.0000e+00
3.0611e-04 2.7189e-03 0.0000e+00
4.5839e-04 2.7199e-03 0.0000e+00
6.1001e-04 2.7212e-03 0.0000e+00
7.6092e-04 2.7224e-03 0.0000e+00
9.1123e-04 2.7235e-03 0.0000e+00
1.0610e-03 2.7244e-03 0.0000e+00
1.2103e-03 2.7252e-03 0.0000e+00
1.3593e-03 2.7258e-03 0.0000e+00
1.5080e-03 2.7263e-03 0.0000e+00
1.6565e-03 2.7267e-03 0.0000e+00
1.8048e-03 2.7270e-03 0.0000e+00
1.9529e-03 2.7273e-03 0.0000e+00
2.1009e-03 2.7274e-03 0.0000e+00
2.2487e-03 2.7275e-03 0.0000e+00
2.3964e-03 2.7275e-03 0.0000e+00
2.5440e-03 2.7275e-03 0.0000e+00
2.6913e-03 2.7274e-03 0.0000e+00
2.8387e-03 2.7272e-03 0.0000e+00
2.9867e-03 2.7270e-03 0.0000e+00
1.5328e-04 2.8533e-03 0.0000e+00
3.0617e-04 2.8547e-03 0.0000e+00
4.5856e-04 2.8567e-03 0.0000e+00
6.1026e-04 2.8588e-03 0.0000e+00
7.6129e-04 2.8610e-03 0.0000e+00
9.1164e-04 2.8629e-03 0.0000e+00
1.0615e-03 2.8646e-03 0.0000e+00
1.2108e-03 2.8660e-03 0.0000e+00
1.3598e-03 2.8672e-03 0.0000e+00
1.5085e-03 2.8682e-03 0.0000e+00
1.6570e-03 2.8690e-03 0.0000e+00
1.8052e-03 2.8697e-03 0.0000e+00
1.9533e-03 2.8702e-03 0.0000e+00
2.1013e-03 2.8707e-03 0.0000e+00
2.2491e-03 2.8711e-03 0.0000e+00
2.3968e-03 2.8714e-03 0.0000e+00
2.5443e-03 2.8716e-03 0.0000e+00
2.6917e-03 2.8718e-03 0.0000e+00
2.8425e-03 2.8756e-03 0.0000e+00
2.9855e-03 2.8675e-03 0.0000e+00
1.5307e-04 2.9887e-03 0.0000e+00
3.0592e-04 2.9907e-03 0.0000e+00
4.5827e-04 2.9934e-03 0.0000e+00
6.1007e-04 2.9965e-03 0.0000e+00
7.6115e-04 2.9994e-03 0.0000e+00
9.1164e-04 3.0023e-03 0.0000e+00
1.0615e-03 3.0047e-03 0.0000e+00
1.2109e-03 3.0068e-03 0.0000e+00
1.3599e-03 3.0086e-03 0.0000e+00
1.5086e-03 3.0100e-03 0.0000e+00
1.6571e-03 3.0113e-03 0.0000e+00
1.8054e-03 3.0123e-03 0.0000e+00
1.9535e-03 3.0132e-03 0.0000e+00
2.1014e-03 3.0139e-03 0.0000e+00
2.2492e-03 3.0146e-03 0.0000e+00
2.3969e-03 3.0152e-03 0.0000e+00
2.5444e-03 3.0158e-03 0.0000e+00
2.6990e-03 3.0235e-03 0.0000e+00
2.8495e-03 3.0240e-03 0.0000e+00
2.9871e-03 3.0026e-03 0.0000e+00
1.5257e-04 3.1248e-03 0.0000e+00
3.0505e-04 3.1270e-03 0.0000e+00
4.5732e-04 3.1303e-03 0.0000e+00
6.0908e-04 3.1340e-03 0.0000e+00
7.6037e-04 3.1379e-03 0.0000e+00
9.1097e-04 3.1415e-03 0.0000e+00
1.0611e-03 3.1448e-03 0.0000e+00
1.2105e-03 3.1476e-03 0.0000e+00
1.3597e-03 3.1499e-03 0.0000e+00
1.5084e-03 3.1519e-03 0.0000e+00
1.6569e-03 3.1535e-03 0.0000e+00
1.8052e-03 3.1549e-03 0.0000e+00
1.9533e-03 3.1561e-03 0.0000e+00
2.1012e-03 3.1572e-03 0.0000e+00
2.2491e-03 3.1582e-03 0.0000e+00
2.3967e-03 3.1591e-03 0.0000e+00
2.5515e-03 3.1671e-03 0.0000e+00
2.6988e-03 3.1680e-03 0.0000e+00
2.8275e-03 3.1506e-03 0.0000e+00
2.9818e-03 3.1622e-03 0.0000e+00
1.5159e-04 3.2619e-03 0.0000e+00
3.0344e-04 3.2643e-03 0.0000e+00
4.5529e-04 3.2676e-03 0.0000e+00
6.0714e-04 3.2719e-03 0.0000e+00
7.5855e-04 3.2763e-03 0.0000e+00
9.0955e-04 3.2808e-03 0.0000e+00
1.0599e-03 3.2847e-03 0.0000e+00
1.2097e-03 3.2883e-03 0.0000e+00
1.3589e-03 3.2912e-03 0.0000e+00
1.5078e-03 3.2937e-03 0.0000e+00
1.6563e-03 3.2958e-03 0.0000e+00
1.8047e-03 3.2976e-03 0.0000e+00
1.9528e-03 3.2991e-03 0.0000e+00
2.1008e-03 3.3005e-03 0.0000e+00
2.2485e-03 3.3018e-03 0.0000e+00
2.3999e-03 3.3066e-03 0.0000e+00
2.5510e-03 3.3150e-03 0.0000e+00
2.6799e-03 3.2943e-03 0.0000e+00
2.8380e-03 3.3062e-03 0.0000e+00
2.9785e-03 3.3072e-03 0.0000e+00
1.5033e-04 3.4013e-03 0.0000e+00
3.0103e-04 3.4030e-03 0.0000e+00
4.5230e-04 3.4061e-03 0.0000e+00
6.0388e-04 3.4100e-03 0.0000e+00
7.5566e-04 3.4149e-03 0.0000e+00
9.0698e-04 3.4197e-03 0.0000e+00
1.0579e-03 3.4245e-03 0.0000e+00
1.2080e-03 3.4287e-03 0.0000e+00
1.3577e-03 3.4324e-03 0.0000e+00
1.5067e-03 3.4355e-03 0.0000e+00
1.6555e-03 3.4380e-03 0.0000e+00
1.8038e-03 3.4402e-03 0.0000e+00
1.9520e-03 3.4421e-03 0.0000e+00
2.1000e-03 3.4438e-03 0.0000e+00
2.2478e-03 3.4454e-03 0.0000e+00
2.3908e-03 3.4469e-03 0.0000e+00
2.5318e-03 3.4482e-03 0.0000e+00
2.6901e-03 3.4497e-03 0.0000e+00
2.8342e-03 3.4480e-03 0.0000e+00
2.9661e-03 3.4813e-03 0.0000e+00
1.4904e-04 3.5429e-03 0.0000e+00
2.9850e-04 3.5442e-03 0.0000e+00
4.4860e-04 3.5461e-03 0.0000e+00
5.9969e-04 3.5494e-03 0.0000e+00
7.5132e-04 3.5536e-03 0.0000e+00
9.0326e-04 3.5588e-03 0.0000e+00
1.0547e-03 3.5640e-03 0.0000e+00
1.2057e-03 3.5690e-03 0.0000e+00
1.3557e-03 3.5733e-03 0.0000e+00
1.5053e-03 3.5771e-03 0.0000e+00
1.6541e-03 3.5802e-03 0.0000e+00
1.8027e-03 3.5829e-03 0.0000e+00
1.9509e-03 3.5851e-03 0.0000e+00
2.0989e-03 3.5872e-03 0.0000e+00
2.2467e-03 3.5891e-03 0.0000e+00
2.3980e-03 3.5873e-03 0.0000e+00
2.5492e-03 3.5819e-03 0.0000e+00
2.6779e-03 3.6050e-03 0.0000e+00
2.8542e-03 3.5962e-03 0.0000e+00
1.4816e-04 3.6869e-03 0.0000e+00
2.9655e-04 3.6873e-03 0.0000e+00
4.4546e-04 3.6885e-03 0.0000e+00
5.9512e-04 3.6903e-03 0.0000e+00
7.4606e-04 3.6935e-03 0.0000e+00
8.9791e-04 3.6978e-03 0.0000e+00
1.0503e-03 3.7033e-03 0.0000e+00
1.2020e-03 3.7087e-03 0.0000e+00
1.3530e-03 3.7140e-03 0.0000e+00
1.5031e-03 3.7185e-03 0.0000e+00
1.6525e-03 3.7223e-03 0.0000e+00
1.8012e-03 3.7255e-03 0.0000e+00
1.9495e-03 3.7282e-03 0.0000e+00
2.0975e-03 3.7307e-03 0.0000e+00
2.2453e-03 3.7328e-03 0.0000e+00
2.3929e-03 3.7349e-03 0.0000e+00
2.5479e-03 3.7298e-03 0.0000e+00
2.6964e-03 3.7318e-03 0.0000e+00
2.8291e-03 3.7547e-03 0.0000e+00
1.4772e-04 3.8321e-03 0.0000e+00
2.9552e-04 3.8323e-03 0.0000e+00
4.4351e-04 3.8328e-03 0.0000e+00
5.9195e-04 3.8337e-03 0.0000e+00
7.4114e-04 3.8352e-03 0.0000e+00
8.9187e-04 3.8381e-03 0.0000e+00
1.0440e-03 3.8423e-03 0.0000e+00
1.1968e-03 3.8482e-03 0.0000e+00
1.3489e-03 3.8539e-03 0.0000e+00
1.5002e-03 3.8595e-03 0.0000e+00
1.6501e-03 3.8642e-03 0.0000e+00
1.7994e-03 3.8681e-03 0.0000e+00
1.9478e-03 3.8714e-03 0.0000e+00
2.0960e-03 3.8742e-03 0.0000e+00
2.2437e-03 3.8767e-03 0.0000e+00
2.3914e-03 3.8790e-03 0.0000e+00
2.5389e-03 3.8814e-03 0.0000e+00
2.6957e-03 3.8765e-03 0.0000e+00
2.8571e-03 3.8783e-03 0.0000e+00
1.4752e-04 3.9781e-03 0.0000e+00
2.9503e-04 3.9781e-03 0.0000e+00
4.4263e-04 3.9784e-03 0.0000e+00
5.9040e-04 3.9788e-03 0.0000e+00
7.3852e-04 3.9794e-03 0.0000e+00
8.8726e-04 3.9805e-03 0.0000e+00
1.0375e-03 3.9830e-03 0.0000e+00
1.1896e-03 3.9871e-03 0.0000e+00
1.3431e-03 3.9933e-03 0.0000e+00
1.4955e-03 3.9995e-03 0.0000e+00
1.6470e-03 4.0055e-03 0.0000e+00
1.7969e-03 4.0104e-03 0.0000e+00
1.9459e-03 4.0144e-03 0.0000e+00
2.0941e-03 4.0178e-03 0.0000e+00
2.2421e-03 4.0206e-03 0.0000e+00
2.3896e-03 4.0233e-03 0.0000e+00
2.5371e-03 4.0259e-03 0.0000e+00
2.6910e-03 4.0358e-03 0.0000e+00
2.8435e-03 4.0391e-03 0.0000e+00
1.4738e-04 4.1243e-03 0.0000e+00
2.9478e-04 4.1244e-03 0.0000e+00
4.4221e-04 4.1245e-03 0.0000e+00
5.8972e-04 4.1247e-03 0.0000e+00
7.3735e-04 4.1250e-03 0.0000e+00
8.8519e-04 4.1254e-03 0.0000e+00
1.0335e-03 4.1262e-03 0.0000e+00
1.1831e-03 4.1282e-03 0.0000e+00
1.3350e-03 4.1320e-03 0.0000e+00
1.4891e-03 4.1386e-03 0.0000e+00
1.6421e-03 4.1456e-03 0.0000e+00
1.7938e-03 4.1520e-03 0.0000e+00
1.9435e-03 4.1572e-03 0.0000e+00
2.0922e-03 4.1613e-03 0.0000e+00
2.2402e-03 4.1647e-03 0.0000e+00
2.3878e-03 4.1677e-03 0.0000e+00
2.5388e-03 4.1743e-03 0.0000e+00
2.6888e-03 4.1843e-03 0.0000e+00
2.8127e-03 4.1649e-03 0.0000e+00
1.4730e-04 4.2708e-03 0.0000e+00
2.9461e-04 4.2709e-03 0.0000e+00
4.4195e-04 4.2710e-03 0.0000e+00
5.8933e-04 4.2710e-03 0.0000e+00
7.3675e-04 4.2712e-03 0.0000e+00
8.8426e-04 4.2714e-03 0.0000e+00
1.0319e-03 4.2717e-03 0.0000e+00
1.1799e-03 4.2722e-03 0.0000e+00
1.3290e-03 4.2737e-03 0.0000e+00
1.4804e-03 4.2772e-03 0.0000e+00
1.6351e-03 4.2843e-03 0.0000e+00
1.7886e-03 4.2922e-03 0.0000e+00
1.9404e-03 4.2992e-03 0.0000e+00
2.0898e-03 4.3047e-03 0.0000e+00
2.2382e-03 4.3088e-03 0.0000e+00
2.3857e-03 4.3123e-03 0.0000e+00
2.5285e-03 4.3153e-03 0.0000e+00
2.6737e-03 4.3183e-03 0.0000e+00
2.8231e-03 4.3181e-03 0.0000e+00
1.4725e-04 4.4175e-03 0.0000e+00
2.9451e-04 4.4175e-03 0.0000e+00
4.4178e-04 4.4175e-03 0.0000e+00
5.8906e-04 4.4176e-03 0.0000e+00
7.3637e-04 4.4176e-03 0.0000e+00
8.8373e-04 4.4177e-03 0.0000e+00
1.0312e-03 4.4179e-03 0.0000e+00
1.1787e-03 4.4181e-03 0.0000e+00
1.3265e-03 4.4185e-03 0.0000e+00
1.4750e-03 4.4196e-03 0.0000e+00
1.6259e-03 4.4228e-03 0.0000e+00
1.7810e-03 4.4305e-03 0.0000e+00
1.9352e-03 4.4395e-03 0.0000e+00
2.0868e-03 4.4473e-03 0.0000e+00
2.2358e-03 4.4529e-03 0.0000e+00
2.3837e-03 4.4570e-03 0.0000e+00
2.5383e-03 4.4570e-03 0.0000e+00
2.7043e-03 4.4495e-03 0.0000e+00
1.4722e-04 4.5642e-03 0.0000e+00
2.9444e-04 4.5642e-03 0.0000e+00
4.4166e-04 4.5642e-03 0.0000e+00
5.8889e-04 4.5642e-03 0.0000e+00
7.3613e-04 4.5643e-03 0.0000e+00
8.8339e-04 4.5643e-03 0.0000e+00
1.0307e-03 4.5644e-03 0.0000e+00
1.1780e-03 4.5645e-03 0.0000e+00
1.3254e-03 4.5647e-03 0.0000e+00
1.4730e-03 4.5649e-03 0.0000e+00
1.6211e-03 4.5657e-03 0.0000e+00