# vtk DataFile Version 3.0
VTK Example
ASCII
DATASET UNSTRUCTURED_GRID
POINTS 863 float 
0.000147094 0.000145417 0.0
0.000294094 0.000145399 0.0
0.000441234 0.000145358 0.0
0.000588334 0.000145367 0.0
0.000735429 0.000145369 0.0
0.000882523 0.000145365 0.0
0.00102962 0.000145357 0.0
0.00117671 0.000145346 0.0
0.00132381 0.000145336 0.0
0.0014709 0.000145317 0.0
0.001618 0.000145302 0.0
0.0017651 0.000145272 0.0
0.00191222 0.000145254 0.0
0.00205933 0.00014523 0.0
0.00220646 0.000145163 0.0
0.00235359 0.000145009 0.0
0.00249901 0.000144177 0.0
0.00264884 0.000134448 0.0
0.000147138 0.000291941 0.0
0.000294152 0.000292026 0.0
0.000441322 0.000292058 0.0
0.000588453 0.000292054 0.0
0.000735584 0.000292059 0.0
0.000882712 0.000292053 0.0
0.00102984 0.000292052 0.0
0.00117697 0.000292047 0.0
0.00132411 0.000292048 0.0
0.00147124 0.000292043 0.0
0.00161838 0.000292026 0.0
0.00176554 0.000292028 0.0
0.00191267 0.000292019 0.0
0.00205983 0.000292025 0.0
0.00220728 0.000291662 0.0
0.00235681 0.000289679 0.0
0.00251604 0.000280146 0.0
0.00267975 0.000261549 0.0
0.00280667 0.000283015 0.0
0.00014712 0.000438903 0.0
0.000294285 0.000438888 0.0
0.000441419 0.000438899 0.0
0.000588589 0.000438903 0.0
0.00073575 0.000438897 0.0
0.000882916 0.000438894 0.0
0.00103008 0.000438887 0.0
0.00117725 0.000438881 0.0
0.00132443 0.000438876 0.0
0.00147161 0.000438881 0.0
0.00161877 0.000438862 0.0
0.00176594 0.000438851 0.0
0.00191321 0.000438783 0.0
0.00206122 0.000438049 0.0
0.00221194 0.000435287 0.0
0.00236601 0.00042984 0.0
0.00251989 0.000421684 0.0
0.00268084 0.00041071 0.0
0.00283648 0.000412052 0.0
0.000147175 0.000585747 0.0
0.000294346 0.000585753 0.0
0.000441539 0.000585742 0.0
0.000588725 0.000585734 0.0
0.000735926 0.000585725 0.0
0.000883127 0.000585713 0.0
0.00103033 0.000585705 0.0
0.00117754 0.000585692 0.0
0.00132475 0.000585683 0.0
0.00147196 0.000585685 0.0
0.00161918 0.000585667 0.0
0.00176668 0.00058536 0.0
0.00191558 0.000584006 0.0
0.00206738 0.000580651 0.0
0.00222099 0.000575471 0.0
0.00237385 0.000569165 0.0
0.00252481 0.000563297 0.0
0.0026704 0.000558481 0.0
0.00281626 0.000550897 0.0
0.000147208 0.00073255 0.0
0.000294426 0.00073253 0.0
0.000441642 0.000732519 0.0
0.000588869 0.000732501 0.0
0.000736097 0.00073248 0.0
0.000883338 0.000732462 0.0
0.00103058 0.000732444 0.0
0.00117783 0.000732435 0.0
0.00132509 0.000732406 0.0
0.00147247 0.000732285 0.0
0.00162046 0.000731733 0.0
0.00177042 0.000729549 0.0
0.001923 0.000725675 0.0
0.0020761 0.000720803 0.0
0.00222815 0.000715712 0.0
0.00237886 0.000710853 0.0
0.00252813 0.000706534 0.0
0.00268056 0.00069907 0.0
0.00283405 0.000688156 0.0
0.00295252 0.000710202 0.0
0.000147252 0.000879266 0.0
0.000294495 0.000879247 0.0
0.000441753 0.000879217 0.0
0.000589019 0.000879194 0.0
0.000736296 0.000879159 0.0
0.000883586 0.000879121 0.0
0.0010309 0.00087909 0.0
0.00117827 0.000879018 0.0
0.00132594 0.000878713 0.0
0.0014748 0.000877441 0.0
0.00162612 0.000874694 0.0
0.00177895 0.000870663 0.0
0.00193118 0.000865964 0.0
0.00208253 0.000861658 0.0
0.00223292 0.000857547 0.0
0.00238225 0.000853832 0.0
0.00253083 0.000850459 0.0
0.00267885 0.000847266 0.0
0.00283225 0.00083681 0.0
0.00298036 0.000832935 0.0
0.000147301 0.0010259 0.0
0.000294599 0.00102588 0.0
0.000441898 0.00102583 0.0
0.000589234 0.00102577 0.0
0.000736593 0.00102573 0.0
0.000883986 0.00102564 0.0
0.00103155 0.00102543 0.0
0.0011798 0.00102472 0.0
0.00132987 0.0010227 0.0
0.00148199 0.00101945 0.0
0.00163438 0.00101528 0.0
0.00178605 0.00101121 0.0
0.00193698 0.00100731 0.0
0.00208699 0.00100363 0.0
0.00223628 0.00100038 0.0
0.00238498 0.000997374 0.0
0.00253321 0.000994551 0.0
0.00268108 0.000991793 0.0
0.0028349 0.000992535 0.0
0.00300101 0.000997416 0.0
0.000147372 0.0011724 0.0
0.000294755 0.00117238 0.0
0.000442148 0.00117232 0.0
0.000589567 0.00117219 0.0
0.000737138 0.00117201 0.0
0.000885092 0.00117157 0.0
0.00103422 0.00117018 0.0
0.00118538 0.00116755 0.0
0.0013376 0.00116391 0.0
0.00148943 0.0011599 0.0
0.00164066 0.00115616 0.0
0.00179121 0.00115259 0.0
0.00194105 0.00114935 0.0
0.0020903 0.00114638 0.0
0.00223902 0.00114364 0.0
0.00238735 0.00114113 0.0
0.00253538 0.0011387 0.0
0.00268313 0.0011363 0.0
0.00282818 0.00113392 0.0
0.00297709 0.00113146 0.0
0.000147487 0.00131873 0.0
0.000294991 0.00131865 0.0
0.000442606 0.0013185 0.0
0.000590466 0.00131813 0.0
0.000739063 0.00131713 0.0
0.000889258 0.00131517 0.0
0.00104091 0.00131207 0.0
0.00119272 0.00130819 0.0
0.00134413 0.00130442 0.0
0.00149504 0.00130086 0.0
0.0016453 0.00129755 0.0
0.00179501 0.00129458 0.0
0.00194422 0.00129187 0.0
0.00209297 0.00128942 0.0
0.00224138 0.00128714 0.0
0.00238948 0.00128497 0.0
0.00253734 0.00128288 0.0
0.00268498 0.00128079 0.0
0.0028369 0.00127503 0.0
0.00299393 0.00126551 0.0
0.00311657 0.00128857 0.0
0.000147768 0.00146466 0.0
0.000295686 0.00146435 0.0
0.000444129 0.00146362 0.0
0.00059361 0.00146221 0.0
0.000744365 0.00145969 0.0
0.000895862 0.00145618 0.0
0.00104737 0.00145239 0.0
0.00119854 0.00144871 0.0
0.00134915 0.00144524 0.0
0.00149925 0.00144216 0.0
0.00164886 0.00143938 0.0
0.00179801 0.00143689 0.0
0.00194679 0.00143466 0.0
0.00209524 0.00143261 0.0
0.00224341 0.0014307 0.0
0.00239136 0.00142886 0.0
0.00253909 0.00142707 0.0
0.00268662 0.0014253 0.0
0.00283394 0.00142352 0.0
0.00298863 0.0014144 0.0
0.00314179 0.00141179 0.0
0.000148619 0.00160937 0.0
0.000297762 0.00160836 0.0
0.000447809 0.00160645 0.0
0.00059879 0.00160359 0.0
0.000750237 0.00160002 0.0
0.000901576 0.00159622 0.0
0.00105253 0.00159259 0.0
0.00120301 0.00158928 0.0
0.00135301 0.00158634 0.0
0.00150254 0.00158372 0.0
0.00165167 0.00158143 0.0
0.00180045 0.0015794 0.0
0.00194893 0.00157757 0.0
0.00209716 0.00157589 0.0
0.00224517 0.00157431 0.0
0.00239298 0.00157278 0.0
0.0025406 0.00157129 0.0
0.00268803 0.00156981 0.0
0.00283528 0.00156834 0.0
0.00298864 0.00157042 0.0
0.00315502 0.00157675 0.0
0.00015025 0.0017515 0.0
0.00030103 0.0017496 0.0
0.000452306 0.00174665 0.0
0.000603793 0.00174311 0.0
0.000755122 0.00173943 0.0
0.000906061 0.00173594 0.0
0.0010565 0.00173277 0.0
0.00120647 0.00172998 0.0
0.00135599 0.00172756 0.0
0.00150512 0.00172546 0.0
0.00165391 0.00172363 0.0
0.00180242 0.00172202 0.0
0.00195069 0.00172056 0.0
0.00209875 0.00171922 0.0
0.00224663 0.00171795 0.0
0.00239433 0.00171672 0.0
0.00254186 0.00171552 0.0
0.00268921 0.00171433 0.0
0.0028364 0.00171315 0.0
0.0029806 0.00171198 0.0
0.00312833 0.0017108 0.0
0.000152057 0.0018904 0.0
0.000304187 0.00188808 0.0
0.000456148 0.00188498 0.0
0.000607737 0.00188161 0.0
0.000758843 0.00187839 0.0
0.000909417 0.00187547 0.0
0.00105948 0.00187294 0.0
0.00120906 0.00187075 0.0
0.00135824 0.00186889 0.0
0.00150708 0.0018673 0.0
0.00165564 0.00186592 0.0
0.00180396 0.00186469 0.0
0.00195208 0.00186359 0.0
0.00210002 0.00186257 0.0
0.00224779 0.00186161 0.0
0.0023954 0.00186068 0.0
0.00254286 0.00185977 0.0
0.00269015 0.00185886 0.0
0.00283728 0.00185796 0.0
0.00298861 0.00185341 0.0
0.00314327 0.00184519 0.0
0.00325814 0.00186935 0.0
0.00015338 0.00202654 0.0
0.000306394 0.00202459 0.0
0.00045878 0.00202206 0.0
0.000610452 0.00201946 0.0
0.00076142 0.00201702 0.0
0.000911763 0.0020149 0.0
0.00106156 0.00201309 0.0
0.00121089 0.00201157 0.0
0.00135985 0.00201028 0.0
0.0015085 0.00200919 0.0
0.0016569 0.00200824 0.0
0.00180509 0.00200741 0.0
0.0019531 0.00200666 0.0
0.00210095 0.00200596 0.0
0.00224864 0.00200529 0.0
0.00239619 0.00200465 0.0
0.00254359 0.00200403 0.0
0.00269084 0.0020034 0.0
0.00283793 0.00200278 0.0
0.00298487 0.00200216 0.0
0.00313556 0.00199427 0.0
0.00327018 0.00199005 0.0
0.000154081 0.00216104 0.0
0.00030757 0.00215985 0.0
0.000460242 0.00215838 0.0
0.000612008 0.00215684 0.0
0.000762947 0.00215545 0.0
0.000913167 0.00215424 0.0
0.00106282 0.00215324 0.0
0.00121201 0.0021524 0.0
0.00136085 0.0021517 0.0
0.00150938 0.00215111 0.0
0.00165769 0.0021506 0.0
0.0018058 0.00215015 0.0
0.00195375 0.00214974 0.0
0.00210154 0.00214935 0.0
0.00224919 0.00214899 0.0
0.00239669 0.00214864 0.0
0.00254406 0.00214829 0.0
0.00269128 0.00214795 0.0
0.00283835 0.0021476 0.0
0.00298526 0.00214726 0.0
0.00312941 0.00214693 0.0
0.00326543 0.00214298 0.0
0.000154298 0.00229475 0.0
0.000307954 0.00229455 0.0
0.000460735 0.00229426 0.0
0.000612569 0.00229399 0.0
0.000763504 0.00229372 0.0
0.000913706 0.00229353 0.0
0.0010633 0.00229335 0.0
0.00121246 0.00229323 0.0
0.00136124 0.00229312 0.0
0.00150974 0.00229304 0.0
0.00165801 0.00229296 0.0
0.0018061 0.00229289 0.0
0.00195401 0.00229282 0.0
0.00210179 0.00229276 0.0
0.00224941 0.00229269 0.0
0.0023969 0.00229263 0.0
0.00254425 0.00229256 0.0
0.00269146 0.00229249 0.0
0.00283851 0.00229242 0.0
0.00298542 0.00229235 0.0
0.00312985 0.00229229 0.0
0.00326756 0.00229587 0.0
0.000154151 0.00242845 0.0
0.000307691 0.00242916 0.0
0.000460416 0.00243013 0.0
0.000612212 0.00243108 0.0
0.000763171 0.002432 0.0
0.000913389 0.00243278 0.0
0.00106304 0.00243348 0.0
0.00121221 0.00243405 0.0
0.00136104 0.00243455 0.0
0.00150957 0.00243496 0.0
0.00165787 0.00243533 0.0
0.00180597 0.00243564 0.0
0.0019539 0.00243592 0.0
0.00210168 0.00243617 0.0
0.00224932 0.0024364 0.0
0.00239681 0.00243662 0.0
0.00254417 0.00243683 0.0
0.00269138 0.00243704 0.0
0.00283844 0.00243724 0.0
0.00298535 0.00243745 0.0
0.00313644 0.00244493 0.0
0.00327461 0.00244878 0.0
0.000153593 0.00256267 0.0
0.000306761 0.00256428 0.0
0.00045923 0.00256626 0.0
0.00061095 0.0025684 0.0
0.000761908 0.00257035 0.0
0.000912237 0.00257211 0.0
0.00106199 0.00257358 0.0
0.00121131 0.00257487 0.0
0.00136024 0.00257594 0.0
0.00150888 0.00257688 0.0
0.00165725 0.00257767 0.0
0.00180543 0.00257837 0.0
0.0019534 0.002579 0.0
0.00210123 0.00257957 0.0
0.0022489 0.0025801 0.0
0.00239644 0.0025806 0.0
0.00254381 0.0025811 0.0
0.00269105 0.00258158 0.0
0.00283813 0.00258207 0.0
0.00298872 0.00258619 0.0
0.00313798 0.00259395 0.0
0.00325699 0.00257253 0.0
0.000152536 0.00269831 0.0
0.00030495 0.00270033 0.0
0.000457053 0.00270314 0.0
0.000608635 0.00270607 0.0
[...]
POINT_DATA 863
VECTORS Position float
1.4709e-04 1.4542e-04 0.0000e+00
2.9409e-04 1.4540e-04 0.0000e+00
4.4123e-04 1.4536e-04 0.0000e+00
5.8833e-04 1.4537e-04 0.0000e+00
7.3543e-04 1.4537e-04 0.0000e+00
8.8252e-04 1.4537e-04 0.0000e+00
1.0296e-03 1.4536e-04 0.0000e+00
1.1767e-03 1.4535e-04 0.0000e+00
1.3238e-03 1.4534e-04 0.0000e+00
1.4709e-03 1.4532e-04 0.0000e+00
1.6180e-03 1.4530e-04 0.0000e+00
1.7651e-03 1.4527e-04 0.0000e+00
1.9122e-03 1.4525e-04 0.0000e+00
2.0593e-03 1.4523e-04 0.0000e+00
2.2065e-03 1.4516e-04 0.0000e+00
2.3536e-03 1.4501e-04 0.0000e+00
2.4990e-03 1.4418e-04 0.0000e+00
2.6488e-03 1.3445e-04 0.0000e+00
1.4714e-04 2.9194e-04 0.0000e+00
2.9415e-04 2.9203e-04 0.0000e+00
4.4132e-04 2.9206e-04 0.0000e+00
5.8845e-04 2.9205e-04 0.0000e+00
7.3558e-04 2.9206e-04 0.0000e+00
8.8271e-04 2.9205e-04 0.0000e+00
1.0298e-03 2.9205e-04 0.0000e+00
1.1770e-03 2.9205e-04 0.0000e+00
1.3241e-03 2.9205e-04 0.0000e+00
1.4712e-03 2.9204e-04 0.0000e+00
1.6184e-03 2.9203e-04 0.0000e+00
1.7655e-03 2.9203e-04 0.0000e+00
1.9127e-03 2.9202e-04 0.0000e+00
2.0598e-03 2.9202e-04 0.0000e+00
2.2073e-03 2.9166e-04 0.0000e+00
2.3568e-03 2.8968e-04 0.0000e+00
2.5160e-03 2.8015e-04 0.0000e+00
2.6797e-03 2.6155e-04 0.0000e+00
2.8067e-03 2.8302e-04 0.0000e+00
1.4712e-04 4.3890e-04 0.0000e+00
2.9429e-04 4.3889e-04 0.0000e+00
4.4142e-04 4.3890e-04 0.0000e+00
5.8859e-04 4.3890e-04 0.0000e+00
7.3575e-04 4.3890e-04 0.0000e+00
8.8292e-04 4.3889e-04 0.0000e+00
1.0301e-03 4.3889e-04 0.0000e+00
1.1773e-03 4.3888e-04 0.0000e+00
1.3244e-03 4.3888e-04 0.0000e+00
1.4716e-03 4.3888e-04 0.0000e+00
1.6188e-03 4.3886e-04 0.0000e+00
1.7659e-03 4.3885e-04 0.0000e+00
1.9132e-03 4.3878e-04 0.0000e+00
2.0612e-03 4.3805e-04 0.0000e+00
2.2119e-03 4.3529e-04 0.0000e+00
2.3660e-03 4.2984e-04 0.0000e+00
2.5199e-03 4.2168e-04 0.0000e+00
2.6808e-03 4.1071e-04 0.0000e+00
2.8365e-03 4.1205e-04 0.0000e+00
1.4718e-04 5.8575e-04 0.0000e+00
2.9435e-04 5.8575e-04 0.0000e+00
4.4154e-04 5.8574e-04 0.0000e+00
5.8872e-04 5.8573e-04 0.0000e+00
7.3593e-04 5.8572e-04 0.0000e+00
8.8313e-04 5.8571e-04 0.0000e+00
1.0303e-03 5.8570e-04 0.0000e+00
1.1775e-03 5.8569e-04 0.0000e+00
1.3247e-03 5.8568e-04 0.0000e+00
1.4720e-03 5.8569e-04 0.0000e+00
1.6192e-03 5.8567e-04 0.0000e+00
1.7667e-03 5.8536e-04 0.0000e+00
1.9156e-03 5.8401e-04 0.0000e+00
2.0674e-03 5.8065e-04 0.0000e+00
2.2210e-03 5.7547e-04 0.0000e+00
2.3738e-03 5.6916e-04 0.0000e+00
2.5248e-03 5.6330e-04 0.0000e+00
2.6704e-03 5.5848e-04 0.0000e+00
2.8163e-03 5.5090e-04 0.0000e+00
1.4721e-04 7.3255e-04 0.0000e+00
2.9443e-04 7.3253e-04 0.0000e+00
4.4164e-04 7.3252e-04 0.0000e+00
5.8887e-04 7.3250e-04 0.0000e+00
7.3610e-04 7.3248e-04 0.0000e+00
8.8334e-04 7.3246e-04 0.0000e+00
1.0306e-03 7.3244e-04 0.0000e+00
1.1778e-03 7.3243e-04 0.0000e+00
1.3251e-03 7.3241e-04 0.0000e+00
1.4725e-03 7.3229e-04 0.0000e+00
1.6205e-03 7.3173e-04 0.0000e+00
1.7704e-03 7.2955e-04 0.0000e+00
1.9230e-03 7.2567e-04 0.0000e+00
2.0761e-03 7.2080e-04 0.0000e+00
2.2281e-03 7.1571e-04 0.0000e+00
2.3789e-03 7.1085e-04 0.0000e+00
2.5281e-03 7.0653e-04 0.0000e+00
2.6806e-03 6.9907e-04 0.0000e+00
2.8341e-03 6.8816e-04 0.0000e+00
2.9525e-03 7.1020e-04 0.0000e+00
1.4725e-04 8.7927e-04 0.0000e+00
2.9449e-04 8.7925e-04 0.0000e+00
4.4175e-04 8.7922e-04 0.0000e+00
5.8902e-04 8.7919e-04 0.0000e+00
7.3630e-04 8.7916e-04 0.0000e+00
8.8359e-04 8.7912e-04 0.0000e+00
1.0309e-03 8.7909e-04 0.0000e+00
1.1783e-03 8.7902e-04 0.0000e+00
1.3259e-03 8.7871e-04 0.0000e+00
1.4748e-03 8.7744e-04 0.0000e+00
1.6261e-03 8.7469e-04 0.0000e+00
1.7790e-03 8.7066e-04 0.0000e+00
1.9312e-03 8.6596e-04 0.0000e+00
2.0825e-03 8.6166e-04 0.0000e+00
2.2329e-03 8.5755e-04 0.0000e+00
2.3823e-03 8.5383e-04 0.0000e+00
2.5308e-03 8.5046e-04 0.0000e+00
2.6789e-03 8.4727e-04 0.0000e+00
2.8323e-03 8.3681e-04 0.0000e+00
2.9804e-03 8.3293e-04 0.0000e+00
1.4730e-04 1.0259e-03 0.0000e+00
2.9460e-04 1.0259e-03 0.0000e+00
4.4190e-04 1.0258e-03 0.0000e+00
5.8923e-04 1.0258e-03 0.0000e+00
7.3659e-04 1.0257e-03 0.0000e+00
8.8399e-04 1.0256e-03 0.0000e+00
1.0316e-03 1.0254e-03 0.0000e+00
1.1798e-03 1.0247e-03 0.0000e+00
1.3299e-03 1.0227e-03 0.0000e+00
1.4820e-03 1.0195e-03 0.0000e+00
1.6344e-03 1.0153e-03 0.0000e+00
1.7860e-03 1.0112e-03 0.0000e+00
1.9370e-03 1.0073e-03 0.0000e+00
2.0870e-03 1.0036e-03 0.0000e+00
2.2363e-03 1.0004e-03 0.0000e+00
2.3850e-03 9.9737e-04 0.0000e+00
2.5332e-03 9.9455e-04 0.0000e+00
2.6811e-03 9.9179e-04 0.0000e+00
2.8349e-03 9.9254e-04 0.0000e+00
3.0010e-03 9.9742e-04 0.0000e+00
1.4737e-04 1.1724e-03 0.0000e+00
2.9476e-04 1.1724e-03 0.0000e+00
4.4215e-04 1.1723e-03 0.0000e+00
5.8957e-04 1.1722e-03 0.0000e+00
7.3714e-04 1.1720e-03 0.0000e+00
8.8509e-04 1.1716e-03 0.0000e+00
1.0342e-03 1.1702e-03 0.0000e+00
1.1854e-03 1.1675e-03 0.0000e+00
1.3376e-03 1.1639e-03 0.0000e+00
1.4894e-03 1.1599e-03 0.0000e+00
1.6407e-03 1.1562e-03 0.0000e+00
1.7912e-03 1.1526e-03 0.0000e+00
1.9410e-03 1.1493e-03 0.0000e+00
2.0903e-03 1.1464e-03 0.0000e+00
2.2390e-03 1.1436e-03 0.0000e+00
2.3874e-03 1.1411e-03 0.0000e+00
2.5354e-03 1.1387e-03 0.0000e+00
2.6831e-03 1.1363e-03 0.0000e+00
2.8282e-03 1.1339e-03 0.0000e+00
2.9771e-03 1.1315e-03 0.0000e+00
1.4749e-04 1.3187e-03 0.0000e+00
2.9499e-04 1.3186e-03 0.0000e+00
4.4261e-04 1.3185e-03 0.0000e+00
5.9047e-04 1.3181e-03 0.0000e+00
7.3906e-04 1.3171e-03 0.0000e+00
8.8926e-04 1.3152e-03 0.0000e+00
1.0409e-03 1.3121e-03 0.0000e+00
1.1927e-03 1.3082e-03 0.0000e+00
1.3441e-03 1.3044e-03 0.0000e+00
1.4950e-03 1.3009e-03 0.0000e+00
1.6453e-03 1.2976e-03 0.0000e+00
1.7950e-03 1.2946e-03 0.0000e+00
1.9442e-03 1.2919e-03 0.0000e+00
2.0930e-03 1.2894e-03 0.0000e+00
2.2414e-03 1.2871e-03 0.0000e+00
2.3895e-03 1.2850e-03 0.0000e+00
2.5373e-03 1.2829e-03 0.0000e+00
2.6850e-03 1.2808e-03 0.0000e+00
2.8369e-03 1.2750e-03 0.0000e+00
2.9939e-03 1.2655e-03 0.0000e+00
3.1166e-03 1.2886e-03 0.0000e+00
1.4777e-04 1.4647e-03 0.0000e+00
2.9569e-04 1.4644e-03 0.0000e+00
4.4413e-04 1.4636e-03 0.0000e+00
5.9361e-04 1.4622e-03 0.0000e+00
7.4437e-04 1.4597e-03 0.0000e+00
8.9586e-04 1.4562e-03 0.0000e+00
1.0474e-03 1.4524e-03 0.0000e+00
1.1985e-03 1.4487e-03 0.0000e+00
1.3492e-03 1.4452e-03 0.0000e+00
1.4992e-03 1.4422e-03 0.0000e+00
1.6489e-03 1.4394e-03 0.0000e+00
1.7980e-03 1.4369e-03 0.0000e+00
1.9468e-03 1.4347e-03 0.0000e+00
2.0952e-03 1.4326e-03 0.0000e+00
2.2434e-03 1.4307e-03 0.0000e+00
2.3914e-03 1.4289e-03 0.0000e+00
2.5391e-03 1.4271e-03 0.0000e+00
2.6866e-03 1.4253e-03 0.0000e+00
2.8339e-03 1.4235e-03 0.0000e+00
2.9886e-03 1.4144e-03 0.0000e+00
3.1418e-03 1.4118e-03 0.0000e+00
1.4862e-04 1.6094e-03 0.0000e+00
2.9776e-04 1.6084e-03 0.0000e+00
4.4781e-04 1.6065e-03 0.0000e+00
5.9879e-04 1.6036e-03 0.0000e+00
7.5024e-04 1.6000e-03 0.0000e+00
9.0158e-04 1.5962e-03 0.0000e+00
1.0525e-03 1.5926e-03 0.0000e+00
1.2030e-03 1.5893e-03 0.0000e+00
1.3530e-03 1.5863e-03 0.0000e+00
1.5025e-03 1.5837e-03 0.0000e+00
1.6517e-03 1.5814e-03 0.0000e+00
1.8004e-03 1.5794e-03 0.0000e+00
1.9489e-03 1.5776e-03 0.0000e+00
2.0972e-03 1.5759e-03 0.0000e+00
2.2452e-03 1.5743e-03 0.0000e+00
2.3930e-03 1.5728e-03 0.0000e+00
2.5406e-03 1.5713e-03 0.0000e+00
2.6880e-03 1.5698e-03 0.0000e+00
2.8353e-03 1.5683e-03 0.0000e+00
2.9886e-03 1.5704e-03 0.0000e+00
3.1550e-03 1.5767e-03 0.0000e+00
1.5025e-04 1.7515e-03 0.0000e+00
3.0103e-04 1.7496e-03 0.0000e+00
4.5231e-04 1.7467e-03 0.0000e+00
6.0379e-04 1.7431e-03 0.0000e+00
7.5512e-04 1.7394e-03 0.0000e+00
9.0606e-04 1.7359e-03 0.0000e+00
1.0565e-03 1.7328e-03 0.0000e+00
1.2065e-03 1.7300e-03 0.0000e+00
1.3560e-03 1.7276e-03 0.0000e+00
1.5051e-03 1.7255e-03 0.0000e+00
1.6539e-03 1.7236e-03 0.0000e+00
1.8024e-03 1.7220e-03 0.0000e+00
1.9507e-03 1.7206e-03 0.0000e+00
2.0988e-03 1.7192e-03 0.0000e+00
2.2466e-03 1.7179e-03 0.0000e+00
2.3943e-03 1.7167e-03 0.0000e+00
2.5419e-03 1.7155e-03 0.0000e+00
2.6892e-03 1.7143e-03 0.0000e+00
2.8364e-03 1.7131e-03 0.0000e+00
2.9806e-03 1.7120e-03 0.0000e+00
3.1283e-03 1.7108e-03 0.0000e+00
1.5206e-04 1.8904e-03 0.0000e+00
3.0419e-04 1.8881e-03 0.0000e+00
4.5615e-04 1.8850e-03 0.0000e+00
6.0774e-04 1.8816e-03 0.0000e+00
7.5884e-04 1.8784e-03 0.0000e+00
9.0942e-04 1.8755e-03 0.0000e+00
1.0595e-03 1.8729e-03 0.0000e+00
1.2091e-03 1.8708e-03 0.0000e+00
1.3582e-03 1.8689e-03 0.0000e+00
1.5071e-03 1.8673e-03 0.0000e+00
1.6556e-03 1.8659e-03 0.0000e+00
1.8040e-03 1.8647e-03 0.0000e+00
1.9521e-03 1.8636e-03 0.0000e+00
2.1000e-03 1.8626e-03 0.0000e+00
2.2478e-03 1.8616e-03 0.0000e+00
2.3954e-03 1.8607e-03 0.0000e+00
2.5429e-03 1.8598e-03 0.0000e+00
2.6902e-03 1.8589e-03 0.0000e+00
2.8373e-03 1.8580e-03 0.0000e+00
2.9886e-03 1.8534e-03 0.0000e+00
3.1433e-03 1.8452e-03 0.0000e+00
3.2581e-03 1.8693e-03 0.0000e+00
1.5338e-04 2.0265e-03 0.0000e+00
3.0639e-04 2.0246e-03 0.0000e+00
4.5878e-04 2.0221e-03 0.0000e+00
6.1045e-04 2.0195e-03 0.0000e+00
7.6142e-04 2.0170e-03 0.0000e+00
9.1176e-04 2.0149e-03 0.0000e+00
1.0616e-03 2.0131e-03 0.0000e+00
1.2109e-03 2.0116e-03 0.0000e+00
1.3598e-03 2.0103e-03 0.0000e+00
1.5085e-03 2.0092e-03 0.0000e+00
1.6569e-03 2.0082e-03 0.0000e+00
1.8051e-03 2.0074e-03 0.0000e+00
1.9531e-03 2.0067e-03 0.0000e+00
2.1009e-03 2.0060e-03 0.0000e+00
2.2486e-03 2.0053e-03 0.0000e+00
2.3962e-03 2.0047e-03 0.0000e+00
2.5436e-03 2.0040e-03 0.0000e+00
2.6908e-03 2.0034e-03 0.0000e+00
2.8379e-03 2.0028e-03 0.0000e+00
2.9849e-03 2.0022e-03 0.0000e+00
3.1356e-03 1.9943e-03 0.0000e+00
3.2702e-03 1.9901e-03 0.0000e+00
1.5408e-04 2.1610e-03 0.0000e+00
3.0757e-04 2.1598e-03 0.0000e+00
4.6024e-04 2.1584e-03 0.0000e+00
6.1201e-04 2.1568e-03 0.0000e+00
7.6295e-04 2.1554e-03 0.0000e+00
9.1317e-04 2.1542e-03 0.0000e+00
1.0628e-03 2.1532e-03 0.0000e+00
1.2120e-03 2.1524e-03 0.0000e+00
1.3608e-03 2.1517e-03 0.0000e+00
1.5094e-03 2.1511e-03 0.0000e+00
1.6577e-03 2.1506e-03 0.0000e+00
1.8058e-03 2.1501e-03 0.0000e+00
1.9537e-03 2.1497e-03 0.0000e+00
2.1015e-03 2.1494e-03 0.0000e+00
2.2492e-03 2.1490e-03 0.0000e+00
2.3967e-03 2.1486e-03 0.0000e+00
2.5441e-03 2.1483e-03 0.0000e+00
2.6913e-03 2.1479e-03 0.0000e+00
2.8383e-03 2.1476e-03 0.0000e+00
2.9853e-03 2.1473e-03 0.0000e+00
3.1294e-03 2.1469e-03 0.0000e+00
3.2654e-03 2.1430e-03 0.0000e+00
1.5430e-04 2.2948e-03 0.0000e+00
3.0795e-04 2.2946e-03 0.0000e+00
4.6073e-04 2.2943e-03 0.0000e+00
6.1257e-04 2.2940e-03 0.0000e+00
7.6350e-04 2.2937e-03 0.0000e+00
9.1371e-04 2.2935e-03 0.0000e+00
1.0633e-03 2.2934e-03 0.0000e+00
1.2125e-03 2.2932e-03 0.0000e+00
1.3612e-03 2.2931e-03 0.0000e+00
1.5097e-03 2.2930e-03 0.0000e+00
1.6580e-03 2.2930e-03 0.0000e+00
1.8061e-03 2.2929e-03 0.0000e+00
1.9540e-03 2.2928e-03 0.0000e+00
2.1018e-03 2.2928e-03 0.0000e+00
2.2494e-03 2.2927e-03 0.0000e+00
2.3969e-03 2.2926e-03 0.0000e+00
2.5442e-03 2.2926e-03 0.0000e+00
2.6915e-03 2.2925e-03 0.0000e+00
2.8385e-03 2.2924e-03 0.0000e+00
2.9854e-03 2.2924e-03 0.0000e+00
3.1299e-03 2.2923e-03 0.0000e+00
3.2676e-03 2.2959e-03 0.0000e+00
1.5415e-04 2.4285e-03 0.0000e+00
3.0769e-04 2.4292e-03 0.0000e+00
4.6042e-04 2.4301e-03 0.0000e+00
6.1221e-04 2.4311e-03 0.0000e+00
7.6317e-04 2.4320e-03 0.0000e+00
9.1339e-04 2.4328e-03 0.0000e+00
1.0630e-03 2.4335e-03 0.0000e+00
1.2122e-03 2.4340e-03 0.0000e+00
1.3610e-03 2.4346e-03 0.0000e+00
1.5096e-03 2.4350e-03 0.0000e+00
1.6579e-03 2.4353e-03 0.0000e+00
1.8060e-03 2.4356e-03 0.0000e+00
1.9539e-03 2.4359e-03 0.0000e+00
2.1017e-03 2.4362e-03 0.0000e+00
2.2493e-03 2.4364e-03 0.0000e+00
2.3968e-03 2.4366e-03 0.0000e+00
2.5442e-03 2.4368e-03 0.0000e+00
2.6914e-03 2.4370e-03 0.0000e+00
2.8384e-03 2.4372e-03 0.0000e+00
2.9854e-03 2.4375e-03 0.0000e+00
3.1364e-03 2.4449e-03 0.0000e+00
3.2746e-03 2.4488e-03 0.0000e+00
1.5359e-04 2.5627e-03 0.0000e+00
3.0676e-04 2.5643e-03 0.0000e+00
4.5923e-04 2.5663e-03 0.0000e+00
6.1095e-04 2.5684e-03 0.0000e+00
7.6191e-04 2.5703e-03 0.0000e+00
9.1224e-04 2.5721e-03 0.0000e+00
1.0620e-03 2.5736e-03 0.0000e+00
1.2113e-03 2.5749e-03 0.0000e+00
1.3602e-03 2.5759e-03 0.0000e+00
1.5089e-03 2.5769e-03 0.0000e+00
1.6572e-03 2.5777e-03 0.0000e+00
1.8054e-03 2.5784e-03 0.0000e+00
1.9534e-03 2.5790e-03 0.0000e+00
2.1012e-03 2.5796e-03 0.0000e+00
2.2489e-03 2.5801e-03 0.0000e+00
2.3964e-03 2.5806e-03 0.0000e+00
2.5438e-03 2.5811e-03 0.0000e+00
2.6911e-03 2.5816e-03 0.0000e+00
2.8381e-03 2.5821e-03 0.0000e+00
2.9887e-03 2.5862e-03 0.0000e+00
3.1380e-03 2.5940e-03 0.0000e+00
3.2570e-03 2.5725e-03 0.0000e+00
1.5254e-04 2.6983e-03 0.0000e+00
3.0495e-04 2.7003e-03 0.0000e+00
4.5705e-04 2.7031e-03 0.0000e+00
6.0863e-04 2.7061e-03 0.0000e+00
7.5969e-04 2.7089e-03 0.0000e+00
9.1017e-04 2.7115e-03 0.0000e+00
1.0602e-03 2.7137e-03 0.0000e+00
1.2097e-03 2.7156e-03 0.0000e+00
1.3588e-03 2.7173e-03 0.0000e+00
1.5076e-03 2.7187e-03 0.0000e+00
1.6562e-03 2.7200e-03 0.0000e+00
1.8044e-03 2.7211e-03 0.0000e+00
1.9525e-03 2.7221e-03 0.0000e+00
2.1004e-03 2.7230e-03 0.0000e+00
2.2482e-03 2.7238e-03 0.0000e+00
2.3958e-03 2.7246e-03 0.0000e+00
2.5432e-03 2.7254e-03 0.0000e+00
2.6905e-03 2.7261e-03 0.0000e+00
2.8376e-03 2.7269e-03 0.0000e+00
2.9799e-03 2.7276e-03 0.0000e+00
3.1257e-03 2.7284e-03 0.0000e+00
3.2748e-03 2.7261e-03 0.0000e+00
1.5095e-04 2.8361e-03 0.0000e+00
3.0224e-04 2.8382e-03 0.0000e+00
4.5372e-04 2.8410e-03 0.0000e+00
6.0521e-04 2.8444e-03 0.0000e+00
7.5638e-04 2.8478e-03 0.0000e+00
9.0717e-04 2.8510e-03 0.0000e+00
1.0575e-03 2.8539e-03 0.0000e+00
1.2073e-03 2.8564e-03 0.0000e+00
1.3568e-03 2.8586e-03 0.0000e+00
1.5059e-03 2.8606e-03 0.0000e+00
1.6546e-03 2.8623e-03 0.0000e+00
1.8031e-03 2.8638e-03 0.0000e+00
1.9513e-03 2.8651e-03 0.0000e+00
2.0993e-03 2.8663e-03 0.0000e+00
2.2471e-03 2.8675e-03 0.0000e+00
2.3948e-03 2.8685e-03 0.0000e+00
2.5423e-03 2.8696e-03 0.0000e+00
2.6896e-03 2.8707e-03 0.0000e+00
2.8368e-03 2.8717e-03 0.0000e+00
2.9918e-03 2.8692e-03 0.0000e+00
3.1601e-03 2.8595e-03 0.0000e+00
1.4925e-04 2.9770e-03 0.0000e+00
2.9904e-04 2.9783e-03 0.0000e+00
4.4955e-04 2.9806e-03 0.0000e+00
6.0065e-04 2.9836e-03 0.0000e+00
7.5201e-04 2.9872e-03 0.0000e+00
9.0310e-04 2.9907e-03 0.0000e+00
1.0539e-03 2.9941e-03 0.0000e+00
1.2041e-03 2.9971e-03 0.0000e+00
1.3540e-03 2.9999e-03 0.0000e+00
1.5034e-03 3.0023e-03 0.0000e+00
1.6525e-03 3.0045e-03 0.0000e+00
1.8012e-03 3.0064e-03 0.0000e+00
1.9497e-03 3.0081e-03 0.0000e+00
2.0978e-03 3.0096e-03 0.0000e+00
2.2458e-03 3.0111e-03 0.0000e+00
2.3936e-03 3.0125e-03 0.0000e+00
2.5412e-03 3.0138e-03 0.0000e+00
2.6886e-03 3.0152e-03 0.0000e+00
2.8358e-03 3.0165e-03 0.0000e+00
2.9856e-03 3.0179e-03 0.0000e+00
3.1533e-03 3.0194e-03 0.0000e+00
1.4810e-04 3.1207e-03 0.0000e+00
2.9646e-04 3.1213e-03 0.0000e+00
4.4550e-04 3.1224e-03 0.0000e+00
5.9556e-04 3.1244e-03 0.0000e+00
7.4653e-04 3.1272e-03 0.0000e+00
8.9798e-04 3.1307e-03 0.0000e+00
1.0492e-03 3.1343e-03 0.0000e+00
1.2001e-03 3.1378e-03 0.0000e+00
1.3504e-03 3.1409e-03 0.0000e+00
1.5004e-03 3.1439e-03 0.0000e+00
1.6499e-03 3.1465e-03 0.0000e+00
1.7990e-03 3.1489e-03 0.0000e+00
1.9476e-03 3.1510e-03 0.0000e+00
2.0961e-03 3.1529e-03 0.0000e+00
2.2442e-03 3.1547e-03 0.0000e+00
2.3921e-03 3.1564e-03 0.0000e+00
2.5398e-03 3.1581e-03 0.0000e+00
2.6872e-03 3.1597e-03 0.0000e+00
2.8345e-03 3.1613e-03 0.0000e+00
2.9896e-03 3.1703e-03 0.0000e+00
3.1435e-03 3.1757e-03 0.0000e+00
1.4763e-04 3.2662e-03 0.0000e+00
2.9530e-04 3.2663e-03 0.0000e+00
4.4319e-04 3.2667e-03 0.0000e+00
5.9157e-04 3.2675e-03 0.0000e+00
7.4098e-04 3.2689e-03 0.0000e+00
8.9172e-04 3.2713e-03 0.0000e+00
1.0434e-03 3.2747e-03 0.0000e+00
1.1948e-03 3.2784e-03 0.0000e+00
1.3459e-03 3.2819e-03 0.0000e+00
1.4964e-03 3.2852e-03 0.0000e+00
1.6465e-03 3.2884e-03 0.0000e+00
1.7961e-03 3.2912e-03 0.0000e+00
1.9452e-03 3.2938e-03 0.0000e+00
2.0939e-03 3.2961e-03 0.0000e+00
2.2423e-03 3.2983e-03 0.0000e+00
2.3903e-03 3.3003e-03 0.0000e+00
2.5381e-03 3.3023e-03 0.0000e+00
2.6857e-03 3.3042e-03 0.0000e+00
2.8367e-03 3.3098e-03 0.0000e+00
2.9870e-03 3.3191e-03 0.0000e+00
3.1135e-03 3.2989e-03 0.0000e+00
1.4744e-04 3.4123e-03 0.0000e+00
2.9490e-04 3.4124e-03 0.0000e+00
4.4240e-04 3.4125e-03 0.0000e+00
5.9001e-04 3.4127e-03 0.0000e+00
7.3791e-04 3.4131e-03 0.0000e+00
8.8650e-04 3.4140e-03 0.0000e+00
1.0365e-03 3.4159e-03 0.0000e+00
1.1882e-03 3.4190e-03 0.0000e+00
1.3400e-03 3.4227e-03 0.0000e+00
1.4913e-03 3.4264e-03 0.0000e+00
1.6422e-03 3.4298e-03 0.0000e+00
1.7925e-03 3.4332e-03 0.0000e+00
1.9422e-03 3.4363e-03 0.0000e+00
2.0914e-03 3.4392e-03 0.0000e+00
2.2400e-03 3.4417e-03 0.0000e+00
2.3883e-03 3.4442e-03 0.0000e+00
2.5363e-03 3.4465e-03 0.0000e+00
2.6840e-03 3.4487e-03 0.0000e+00
2.8268e-03 3.4509e-03 0.0000e+00
2.9740e-03 3.4568e-03 0.0000e+00
3.1213e-03 3.4524e-03 0.0000e+00
1.4733e-04 3.5587e-03 0.0000e+00
2.9467e-04 3.5587e-03 0.0000e+00
4.4204e-04 3.5588e-03 0.0000e+00
5.8945e-04 3.5589e-03 0.0000e+00
7.3692e-04 3.5590e-03 0.0000e+00
8.8452e-04 3.5592e-03 0.0000e+00
1.0325e-03 3.5597e-03 0.0000e+00
1.1815e-03 3.5610e-03 0.0000e+00
1.3326e-03 3.5636e-03 0.0000e+00
1.4847e-03 3.5671e-03 0.0000e+00
1.6365e-03 3.5711e-03 0.0000e+00
1.7877e-03 3.5747e-03 0.0000e+00
1.9384e-03 3.5784e-03 0.0000e+00
2.0882e-03 3.5818e-03 0.0000e+00
2.2375e-03 3.5850e-03 0.0000e+00
2.3860e-03 3.5879e-03 0.0000e+00
2.5342e-03 3.5906e-03 0.0000e+00
2.6820e-03 3.5932e-03 0.0000e+00
2.8426e-03 3.5996e-03 0.0000e+00
3.0070e-03 3.5959e-03 0.0000e+00
1.4727e-04 3.7053e-03 0.0000e+00
2.9453e-04 3.7053e-03 0.0000e+00
4.4182e-04 3.7053e-03 0.0000e+00
5.8912e-04 3.7054e-03 0.0000e+00
7.3645e-04 3.7054e-03 0.0000e+00
8.8382e-04 3.7055e-03 0.0000e+00
1.0312e-03 3.7056e-03 0.0000e+00
1.1789e-03 3.7058e-03 0.0000e+00
1.3270e-03 3.7065e-03 0.0000e+00
1.4771e-03 3.7085e-03 0.0000e+00
1.6291e-03 3.7117e-03 0.0000e+00
1.7813e-03 3.7158e-03 0.0000e+00
1.9330e-03 3.7198e-03 0.0000e+00
2.0842e-03 3.7240e-03 0.0000e+00
2.2342e-03 3.7279e-03 0.0000e+00
2.3835e-03 3.7315e-03 0.0000e+00
2.5319e-03 3.7348e-03 0.0000e+00
2.6835e-03 3.7414e-03 0.0000e+00
2.8349e-03 3.7517e-03 0.0000e+00
2.9700e-03 3.7290e-03 0.0000e+00
1.4723e-04 3.8520e-03 0.0000e+00
2.9445e-04 3.8520e-03 0.0000e+00
4.4168e-04 3.8520e-03 0.0000e+00
5.8892e-04 3.8520e-03 0.0000e+00
7.3617e-04 3.8520e-03 0.0000e+00
8.8343e-04 3.8521e-03 0.0000e+00
1.0307e-03 3.8521e-03 0.0000e+00
1.1780e-03 3.8522e-03 0.0000e+00
1.3254e-03 3.8523e-03 0.0000e+00
1.4731e-03 3.8526e-03 0.0000e+00
1.6220e-03 3.8539e-03 0.0000e+00
1.7732e-03 3.8566e-03 0.0000e+00
1.9258e-03 3.8606e-03 0.0000e+00
2.0781e-03 3.8650e-03 0.0000e+00
2.2299e-03 3.8699e-03 0.0000e+00
2.3803e-03 3.8746e-03 0.0000e+00
2.5295e-03 3.8787e-03 0.0000e+00
2.6730e-03 3.8822e-03 0.0000e+00
2.8191e-03 3.8854e-03 0.0000e+00
2.9731e-03 3.8858e-03 0.0000e+00
1.4719e-04 3.9987e-03 0.0000e+00
2.9438e-04 3.9987e-03 0.0000e+00
4.4158e-04 3.9987e-03 0.0000e+00
5.8878e-04 3.9988e-03 0.0000e+00
7.3598e-04 3.9988e-03 0.0000e+00
8.8319e-04 3.9988e-03 0.0000e+00
1.0304e-03 3.9988e-03 0.0000e+00
1.1776e-03 3.9988e-03 0.0000e+00
1.3249e-03 3.9989e-03 0.0000e+00
1.4721e-03 3.9989e-03 0.0000e+00
1.6195e-03 3.9990e-03 0.0000e+00
1.7676e-03 3.9997e-03 0.0000e+00
1.9177e-03 4.0018e-03 0.0000e+00
2.0700e-03 4.0054e-03 0.0000e+00
2.2231e-03 4.0103e-03 0.0000e+00
2.3758e-03 4.0164e-03 0.0000e+00
2.5263e-03 4.0222e-03 0.0000e+00
2.6829e-03 4.0234e-03 0.0000e+00
2.8498e-03 4.0167e-03 0.0000e+00
1.4715e-04 4.1456e-03 0.0000e+00
2.9431e-04 4.1456e-03 0.0000e+00
4.4147e-04 4.1456e-03 0.0000e+00
5.8863e-04 4.1456e-03 0.0000e+00
7.3580e-04 4.1456e-03 0.0000e+00
8.8297e-04 4.1456e-03 0.0000e+00
1.0301e-03 4.1456e-03 0.0000e+00
1.1773e-03 4.1456e-03 0.0000e+00
1.3245e-03 4.1456e-03 0.0000e+00
1.4717e-03 4.1456e-03 0.0000e+00
1.6189e-03 4.1457e-03 0.0000e+00
1.7661e-03 4.1457e-03 0.0000e+00
1.9136e-03 4.1460e-03 0.0000e+00
2.0626e-03 4.1474e-03 0.0000e+00
2.2142e-03 4.1505e-03 0.0000e+00
2.3680e-03 4.1558e-03 0.0000e+00
2.5219e-03 4.1638e-03 0.0000e+00
2.6736e-03 4.1709e-03 0.0000e+00
2.8343e-03 4.1757e-03 0.0000e+00
1.4712e-04 4.2941e-03 0.0000e+00
2.9424e-04 4.2941e-03 0.0000e+00
4.4137e-04 4.2941e-03 0.0000e+00
5.8849e-04 4.2941e-03 0.0000e+00
7.3562e-04 4.2941e-03 0.0000e+00
8.8275e-04 4.2942e-03 0.0000e+00
1.0299e-03 4.2942e-03 0.0000e+00
1.1770e-03 4.2942e-03 0.0000e+00