# vtk DataFile Version 3.0
VTK Example
ASCII
DATASET UNSTRUCTURED_GRID
POINTS 915 float 
0.000147089 0.000145678 0.0
0.000294106 0.000145681 0.0
0.000441217 0.000145667 0.0
0.00058831 0.000145675 0.0
0.000735394 0.000145673 0.0
0.000882478 0.000145667 0.0
0.00102956 0.00014566 0.0
0.00117665 0.000145649 0.0
0.00132373 0.000145638 0.0
0.00147082 0.00014562 0.0
0.0016179 0.000145607 0.0
0.00176499 0.00014558 0.0
0.00191208 0.000145565 0.0
0.00205918 0.000145533 0.0
0.00220717 0.000146396 0.0
0.00235407 0.000148137 0.0
0.00251272 0.000159154 0.0
0.00263133 0.000125914 0.0
0.00280689 0.000131141 0.0
0.00014712 0.000292272 0.0
0.000294145 0.000292364 0.0
0.000441286 0.000292386 0.0
0.000588394 0.000292384 0.0
0.000735506 0.000292388 0.0
0.000882614 0.000292382 0.0
0.00102972 0.000292381 0.0
0.00117683 0.000292376 0.0
0.00132395 0.000292376 0.0
0.00147105 0.000292367 0.0
0.00161817 0.000292356 0.0
0.00176529 0.000292359 0.0
0.00191239 0.00029235 0.0
0.0020595 0.000292349 0.0
0.00220567 0.000292134 0.0
0.00235537 0.000293114 0.0
0.00249147 0.00029133 0.0
0.00265674 0.000280579 0.0
0.00281982 0.000273703 0.0
0.000147104 0.000439234 0.0
0.000294242 0.000439223 0.0
0.000441354 0.000439233 0.0
0.000588494 0.000439239 0.0
0.000735624 0.000439235 0.0
0.00088276 0.000439234 0.0
0.0010299 0.000439228 0.0
0.00117703 0.000439226 0.0
0.00132417 0.000439224 0.0
0.00147131 0.000439228 0.0
0.00161844 0.000439212 0.0
0.00176557 0.000439221 0.0
0.0019128 0.000439138 0.0
0.00206062 0.000438597 0.0
0.00221151 0.000437074 0.0
0.00236329 0.000434039 0.0
0.00253798 0.000428021 0.0
0.00264626 0.000424112 0.0
0.00281425 0.000419156 0.0
0.00296094 0.000419235 0.0
0.000147143 0.000586121 0.0
0.000294283 0.000586126 0.0
0.000441441 0.000586122 0.0
0.00058859 0.00058612 0.0
0.000735751 0.000586116 0.0
0.00088291 0.000586107 0.0
0.00103007 0.000586104 0.0
0.00117723 0.000586096 0.0
0.0013244 0.000586093 0.0
0.00147156 0.000586096 0.0
0.00161876 0.000586065 0.0
0.00176626 0.00058576 0.0
0.00191488 0.000584706 0.0
0.00206516 0.0005827 0.0
0.00221546 0.000579634 0.0
0.00236821 0.000573677 0.0
0.00250286 0.000569057 0.0
0.00266368 0.000568875 0.0
0.00281503 0.000564736 0.0
0.00296199 0.000559165 0.0
0.000147165 0.000732996 0.0
0.000294336 0.000732983 0.0
0.000441507 0.000732976 0.0
0.000588692 0.000732967 0.0
0.000735875 0.000732955 0.0
0.000883066 0.000732944 0.0
0.00103026 0.000732929 0.0
0.00117746 0.000732924 0.0
0.00132469 0.000732891 0.0
0.00147206 0.000732753 0.0
0.00162009 0.000732135 0.0
0.00176959 0.000730496 0.0
0.00192038 0.000728062 0.0
0.00207146 0.000725097 0.0
0.00222305 0.000720792 0.0
0.00237264 0.000715737 0.0
0.00253481 0.000698832 0.0
0.00265204 0.000728796 0.0
0.00281524 0.000712619 0.0
0.00298154 0.000707137 0.0
0.000147195 0.000879813 0.0
0.000294386 0.000879797 0.0
0.000441593 0.000879773 0.0
0.000588809 0.000879751 0.0
0.000736041 0.000879729 0.0
0.000883282 0.000879704 0.0
0.00103054 0.000879669 0.0
0.00117789 0.000879576 0.0
0.0013256 0.000879213 0.0
0.00147445 0.000877988 0.0
0.0016248 0.000876053 0.0
0.00177562 0.000873399 0.0
0.00192611 0.000870562 0.0
0.00207625 0.00086767 0.0
0.00222574 0.000864923 0.0
0.00237734 0.000859514 0.0
0.00252641 0.000855383 0.0
0.00268465 0.000843631 0.0
0.002802 0.000872906 0.0
0.00296106 0.00085844 0.0
0.00308796 0.000833564 0.0
0.000147238 0.00102656 0.0
0.000294478 0.00102654 0.0
0.000441725 0.00102649 0.0
0.000589002 0.00102644 0.0
0.000736306 0.00102639 0.0
0.000883668 0.00102631 0.0
0.00103125 0.00102606 0.0
0.00117958 0.00102524 0.0
0.00132936 0.00102357 0.0
0.00147997 0.00102129 0.0
0.00163042 0.00101862 0.0
0.00178055 0.0010161 0.0
0.0019303 0.00101348 0.0
0.00207948 0.00101106 0.0
0.00222823 0.00100878 0.0
0.00237645 0.00100675 0.0
0.00252799 0.00100121 0.0
0.00267647 0.000999435 0.0
0.00283428 0.000987926 0.0
0.00296338 0.00101249 0.0
0.00307864 0.000976272 0.0
0.000147314 0.00117319 0.0
0.000294626 0.00117316 0.0
0.000441955 0.0011731 0.0
0.000589333 0.00117297 0.0
0.000736886 0.00117275 0.0
0.000884908 0.00117221 0.0
0.00103404 0.00117089 0.0
0.00118435 0.00116885 0.0
0.00133477 0.00116636 0.0
0.00148491 0.00116386 0.0
0.00163475 0.00116147 0.0
0.00178419 0.0011591 0.0
0.0019332 0.00115696 0.0
0.00208184 0.00115491 0.0
0.00223005 0.0011531 0.0
0.002378 0.00115144 0.0
0.00252566 0.00114989 0.0
0.00267589 0.00114566 0.0
0.00282418 0.00114534 0.0
0.00296945 0.00114392 0.0
0.0031227 0.00112517 0.0
0.00323361 0.00116052 0.0
0.000147432 0.00131963 0.0
0.000294883 0.00131956 0.0
0.000442458 0.00131936 0.0
0.000590331 0.00131894 0.0
0.000738966 0.0013179 0.0
0.000888746 0.00131622 0.0
0.00103909 0.00131387 0.0
0.00118921 0.00131136 0.0
0.00133912 0.00130897 0.0
0.0014887 0.00130668 0.0
0.00163795 0.00130452 0.0
0.00178683 0.00130255 0.0
0.00193538 0.00130073 0.0
0.00208359 0.00129911 0.0
0.00223156 0.00129762 0.0
0.00237928 0.00129625 0.0
0.00252684 0.00129496 0.0
0.00267421 0.00129372 0.0
0.00282235 0.0012916 0.0
0.0029708 0.00128971 0.0
0.00311709 0.00128398 0.0
0.00326492 0.00127521 0.0
0.000147742 0.00146563 0.0
0.000295675 0.00146529 0.0
0.000444099 0.00146457 0.0
0.000593329 0.00146325 0.0
0.000743249 0.00146119 0.0
0.000893354 0.00145866 0.0
0.00104332 0.00145624 0.0
0.00119307 0.00145387 0.0
0.00134246 0.00145168 0.0
0.00149157 0.00144967 0.0
0.00164034 0.00144787 0.0
0.00178883 0.00144622 0.0
0.00193703 0.00144477 0.0
0.00208501 0.00144344 0.0
0.00223277 0.00144224 0.0
0.00238037 0.00144112 0.0
0.00252781 0.00144006 0.0
0.00267512 0.00143904 0.0
0.00282228 0.00143805 0.0
0.00296945 0.00143708 0.0
0.0031217 0.0014352 0.0
0.00327151 0.00143611 0.0
0.000148579 0.00161037 0.0
0.000297562 0.00160949 0.0
0.000447118 0.00160788 0.0
0.000597116 0.00160572 0.0
0.000747208 0.00160323 0.0
0.000897086 0.00160079 0.0
0.00104669 0.00159846 0.0
0.00119599 0.00159641 0.0
0.00134501 0.00159452 0.0
0.0014937 0.00159286 0.0
0.00164215 0.00159139 0.0
0.00179033 0.00159009 0.0
0.00193831 0.00158892 0.0
0.0020861 0.00158788 0.0
0.00223375 0.00158692 0.0
0.00238124 0.00158603 0.0
0.00252861 0.00158519 0.0
0.00267585 0.00158437 0.0
0.00282297 0.00158359 0.0
0.00297168 0.00158373 0.0
0.00312282 0.0015857 0.0
0.003296 0.00159755 0.0
0.000149845 0.00175301 0.0
0.000299954 0.00175156 0.0
0.000450201 0.00174949 0.0
0.000600384 0.00174712 0.0
0.000750314 0.00174481 0.0
0.000899943 0.00174264 0.0
0.00104922 0.0017407 0.0
0.00119819 0.00173898 0.0
0.00134686 0.0017375 0.0
0.00149528 0.00173619 0.0
0.00164345 0.00173506 0.0
0.00179145 0.00173406 0.0
0.00193926 0.00173318 0.0
0.00208694 0.00173238 0.0
0.00223447 0.00173165 0.0
0.0023819 0.00173098 0.0
0.00252921 0.00173034 0.0
0.00267641 0.00172972 0.0
0.00282349 0.00172913 0.0
0.00296981 0.00172857 0.0
0.00311997 0.00172801 0.0
0.00326092 0.00172843 0.0
0.000151015 0.00189332 0.0
0.000301923 0.00189186 0.0
0.000452534 0.00188994 0.0
0.000602741 0.00188796 0.0
0.000752542 0.00188607 0.0
0.000901933 0.0018844 0.0
0.00105097 0.00188292 0.0
0.00119968 0.00188166 0.0
0.00134812 0.00188055 0.0
0.00149633 0.00187962 0.0
0.00164435 0.00187881 0.0
0.00179219 0.0018781 0.0
0.00193991 0.00187748 0.0
0.0020875 0.00187692 0.0
0.00223498 0.00187641 0.0
0.00238235 0.00187594 0.0
0.00252962 0.0018755 0.0
0.00267678 0.00187508 0.0
0.00282385 0.00187468 0.0
0.00297191 0.00187339 0.0
0.00312019 0.00187121 0.0
0.00328037 0.00185901 0.0
0.00338725 0.00189221 0.0
0.000151722 0.00203201 0.0
0.000303082 0.00203097 0.0
0.000453903 0.00202971 0.0
0.000604156 0.00202838 0.0
0.000753864 0.00202718 0.0
0.00090312 0.00202609 0.0
0.00105198 0.00202517 0.0
0.00120054 0.00202437 0.0
0.00134883 0.0020237 0.0
0.00149692 0.00202312 0.0
0.00164483 0.00202263 0.0
0.00179261 0.00202219 0.0
0.00194025 0.00202182 0.0
0.0020878 0.00202148 0.0
0.00223523 0.00202119 0.0
0.00238258 0.00202092 0.0
0.00252982 0.00202067 0.0
0.00267698 0.00202044 0.0
0.00282402 0.00202023 0.0
0.00297097 0.00202005 0.0
0.00311984 0.00201713 0.0
0.00326672 0.0020168 0.0
0.00340323 0.00200734 0.0
0.000151971 0.00216987 0.0
0.000303485 0.00216953 0.0
0.000454399 0.00216909 0.0
0.000604659 0.00216864 0.0
0.000754335 0.00216819 0.0
0.000903514 0.0021678 0.0
0.00105231 0.00216744 0.0
0.00120078 0.00216715 0.0
0.00134902 0.00216688 0.0
0.00149705 0.00216666 0.0
0.00164493 0.00216647 0.0
0.00179267 0.00216632 0.0
0.0019403 0.00216618 0.0
0.00208783 0.00216607 0.0
0.00223526 0.00216598 0.0
0.00238259 0.0021659 0.0
0.00252983 0.00216585 0.0
0.00267698 0.00216581 0.0
0.00282403 0.00216579 0.0
0.00297098 0.00216578 0.0
0.00311956 0.00216853 0.0
0.00326511 0.00216873 0.0
0.00340369 0.00217911 0.0
0.000151848 0.00230765 0.0
0.00030327 0.00230801 0.0
0.000454107 0.00230846 0.0
0.000604328 0.00230887 0.0
0.000753978 0.00230924 0.0
0.00090316 0.00230952 0.0
0.00105195 0.00230976 0.0
0.00120045 0.00230994 0.0
0.0013487 0.00231009 0.0
0.00149676 0.00231022 0.0
0.00164465 0.00231034 0.0
0.00179241 0.00231044 0.0
0.00194005 0.00231055 0.0
0.00208759 0.00231066 0.0
0.00223504 0.00231077 0.0
0.00238239 0.00231089 0.0
0.00252965 0.00231102 0.0
0.00267681 0.00231117 0.0
0.00282387 0.00231133 0.0
0.00297175 0.00231243 0.0
0.00311802 0.00231444 0.0
0.00327514 0.00232751 0.0
0.00338001 0.00229627 0.0
0.000151355 0.00244595 0.0
0.000302422 0.00244693 0.0
0.000453051 0.00244813 0.0
0.000603177 0.00244934 0.0
0.00075283 0.00245041 0.0
0.000902061 0.00245134 0.0
0.00105095 0.00245211 0.0
0.00119953 0.00245276 0.0
0.00134788 0.00245331 0.0
0.00149601 0.00245379 0.0
0.00164398 0.0024542 0.0
0.0017918 0.00245458 0.0
0.0019395 0.00245492 0.0
0.00208709 0.00245524 0.0
0.00223458 0.00245555 0.0
0.00238197 0.00245587 0.0
0.00252926 0.00245619 0.0
0.00267645 0.00245652 0.0
0.00282354 0.00245687 0.0
0.00296938 0.00245724 0.0
0.00311871 0.00245762 0.0
0.00325335 0.00245779 0.0
0.00340198 0.00245417 0.0
0.000150424 0.00258551 0.0
0.000300873 0.00258676 0.0
0.000451172 0.00258843 0.0
0.000601204 0.00259018 0.0
0.000750889 0.00259182 0.0
0.000900241 0.00259326 0.0
0.00104928 0.00259452 0.0
0.00119804 0.00259559 0.0
0.00134654 0.00259652 0.0
[...]
POINT_DATA 915
VECTORS Position float
1.4709e-04 1.4568e-04 0.0000e+00
2.9411e-04 1.4568e-04 0.0000e+00
4.4122e-04 1.4567e-04 0.0000e+00
5.8831e-04 1.4567e-04 0.0000e+00
7.3539e-04 1.4567e-04 0.0000e+00
8.8248e-04 1.4567e-04 0.0000e+00
1.0296e-03 1.4566e-04 0.0000e+00
1.1766e-03 1.4565e-04 0.0000e+00
1.3237e-03 1.4564e-04 0.0000e+00
1.4708e-03 1.4562e-04 0.0000e+00
1.6179e-03 1.4561e-04 0.0000e+00
1.7650e-03 1.4558e-04 0.0000e+00
1.9121e-03 1.4557e-04 0.0000e+00
2.0592e-03 1.4553e-04 0.0000e+00
2.2072e-03 1.4640e-04 0.0000e+00
2.3541e-03 1.4814e-04 0.0000e+00
2.5127e-03 1.5915e-04 0.0000e+00
2.6313e-03 1.2591e-04 0.0000e+00
2.8069e-03 1.3114e-04 0.0000e+00
1.4712e-04 2.9227e-04 0.0000e+00
2.9414e-04 2.9236e-04 0.0000e+00
4.4129e-04 2.9239e-04 0.0000e+00
5.8839e-04 2.9238e-04 0.0000e+00
7.3551e-04 2.9239e-04 0.0000e+00
8.8261e-04 2.9238e-04 0.0000e+00
1.0297e-03 2.9238e-04 0.0000e+00
1.1768e-03 2.9238e-04 0.0000e+00
1.3239e-03 2.9238e-04 0.0000e+00
1.4711e-03 2.9237e-04 0.0000e+00
1.6182e-03 2.9236e-04 0.0000e+00
1.7653e-03 2.9236e-04 0.0000e+00
1.9124e-03 2.9235e-04 0.0000e+00
2.0595e-03 2.9235e-04 0.0000e+00
2.2057e-03 2.9213e-04 0.0000e+00
2.3554e-03 2.9311e-04 0.0000e+00
2.4915e-03 2.9133e-04 0.0000e+00
2.6567e-03 2.8058e-04 0.0000e+00
2.8198e-03 2.7370e-04 0.0000e+00
1.4710e-04 4.3923e-04 0.0000e+00
2.9424e-04 4.3922e-04 0.0000e+00
4.4135e-04 4.3923e-04 0.0000e+00
5.8849e-04 4.3924e-04 0.0000e+00
7.3562e-04 4.3924e-04 0.0000e+00
8.8276e-04 4.3923e-04 0.0000e+00
1.0299e-03 4.3923e-04 0.0000e+00
1.1770e-03 4.3923e-04 0.0000e+00
1.3242e-03 4.3922e-04 0.0000e+00
1.4713e-03 4.3923e-04 0.0000e+00
1.6184e-03 4.3921e-04 0.0000e+00
1.7656e-03 4.3922e-04 0.0000e+00
1.9128e-03 4.3914e-04 0.0000e+00
2.0606e-03 4.3860e-04 0.0000e+00
2.2115e-03 4.3707e-04 0.0000e+00
2.3633e-03 4.3404e-04 0.0000e+00
2.5380e-03 4.2802e-04 0.0000e+00
2.6463e-03 4.2411e-04 0.0000e+00
2.8142e-03 4.1916e-04 0.0000e+00
2.9609e-03 4.1924e-04 0.0000e+00
1.4714e-04 5.8612e-04 0.0000e+00
2.9428e-04 5.8613e-04 0.0000e+00
4.4144e-04 5.8612e-04 0.0000e+00
5.8859e-04 5.8612e-04 0.0000e+00
7.3575e-04 5.8612e-04 0.0000e+00
8.8291e-04 5.8611e-04 0.0000e+00
1.0301e-03 5.8610e-04 0.0000e+00
1.1772e-03 5.8610e-04 0.0000e+00
1.3244e-03 5.8609e-04 0.0000e+00
1.4716e-03 5.8610e-04 0.0000e+00
1.6188e-03 5.8606e-04 0.0000e+00
1.7663e-03 5.8576e-04 0.0000e+00
1.9149e-03 5.8471e-04 0.0000e+00
2.0652e-03 5.8270e-04 0.0000e+00
2.2155e-03 5.7963e-04 0.0000e+00
2.3682e-03 5.7368e-04 0.0000e+00
2.5029e-03 5.6906e-04 0.0000e+00
2.6637e-03 5.6887e-04 0.0000e+00
2.8150e-03 5.6474e-04 0.0000e+00
2.9620e-03 5.5917e-04 0.0000e+00
1.4716e-04 7.3300e-04 0.0000e+00
2.9434e-04 7.3298e-04 0.0000e+00
4.4151e-04 7.3298e-04 0.0000e+00
5.8869e-04 7.3297e-04 0.0000e+00
7.3588e-04 7.3295e-04 0.0000e+00
8.8307e-04 7.3294e-04 0.0000e+00
1.0303e-03 7.3293e-04 0.0000e+00
1.1775e-03 7.3292e-04 0.0000e+00
1.3247e-03 7.3289e-04 0.0000e+00
1.4721e-03 7.3275e-04 0.0000e+00
1.6201e-03 7.3214e-04 0.0000e+00
1.7696e-03 7.3050e-04 0.0000e+00
1.9204e-03 7.2806e-04 0.0000e+00
2.0715e-03 7.2510e-04 0.0000e+00
2.2230e-03 7.2079e-04 0.0000e+00
2.3726e-03 7.1574e-04 0.0000e+00
2.5348e-03 6.9883e-04 0.0000e+00
2.6520e-03 7.2880e-04 0.0000e+00
2.8152e-03 7.1262e-04 0.0000e+00
2.9815e-03 7.0714e-04 0.0000e+00
1.4719e-04 8.7981e-04 0.0000e+00
2.9439e-04 8.7980e-04 0.0000e+00
4.4159e-04 8.7977e-04 0.0000e+00
5.8881e-04 8.7975e-04 0.0000e+00
7.3604e-04 8.7973e-04 0.0000e+00
8.8328e-04 8.7970e-04 0.0000e+00
1.0305e-03 8.7967e-04 0.0000e+00
1.1779e-03 8.7958e-04 0.0000e+00
1.3256e-03 8.7921e-04 0.0000e+00
1.4745e-03 8.7799e-04 0.0000e+00
1.6248e-03 8.7605e-04 0.0000e+00
1.7756e-03 8.7340e-04 0.0000e+00
1.9261e-03 8.7056e-04 0.0000e+00
2.0762e-03 8.6767e-04 0.0000e+00
2.2257e-03 8.6492e-04 0.0000e+00
2.3773e-03 8.5951e-04 0.0000e+00
2.5264e-03 8.5538e-04 0.0000e+00
2.6847e-03 8.4363e-04 0.0000e+00
2.8020e-03 8.7291e-04 0.0000e+00
2.9611e-03 8.5844e-04 0.0000e+00
3.0880e-03 8.3356e-04 0.0000e+00
1.4724e-04 1.0266e-03 0.0000e+00
2.9448e-04 1.0265e-03 0.0000e+00
4.4172e-04 1.0265e-03 0.0000e+00
5.8900e-04 1.0264e-03 0.0000e+00
7.3631e-04 1.0264e-03 0.0000e+00
8.8367e-04 1.0263e-03 0.0000e+00
1.0312e-03 1.0261e-03 0.0000e+00
1.1796e-03 1.0252e-03 0.0000e+00
1.3294e-03 1.0236e-03 0.0000e+00
1.4800e-03 1.0213e-03 0.0000e+00
1.6304e-03 1.0186e-03 0.0000e+00
1.7806e-03 1.0161e-03 0.0000e+00
1.9303e-03 1.0135e-03 0.0000e+00
2.0795e-03 1.0111e-03 0.0000e+00
2.2282e-03 1.0088e-03 0.0000e+00
2.3764e-03 1.0068e-03 0.0000e+00
2.5280e-03 1.0012e-03 0.0000e+00
2.6765e-03 9.9943e-04 0.0000e+00
2.8343e-03 9.8793e-04 0.0000e+00
2.9634e-03 1.0125e-03 0.0000e+00
3.0786e-03 9.7627e-04 0.0000e+00
1.4731e-04 1.1732e-03 0.0000e+00
2.9463e-04 1.1732e-03 0.0000e+00
4.4195e-04 1.1731e-03 0.0000e+00
5.8933e-04 1.1730e-03 0.0000e+00
7.3689e-04 1.1728e-03 0.0000e+00
8.8491e-04 1.1722e-03 0.0000e+00
1.0340e-03 1.1709e-03 0.0000e+00
1.1843e-03 1.1688e-03 0.0000e+00
1.3348e-03 1.1664e-03 0.0000e+00
1.4849e-03 1.1639e-03 0.0000e+00
1.6347e-03 1.1615e-03 0.0000e+00
1.7842e-03 1.1591e-03 0.0000e+00
1.9332e-03 1.1570e-03 0.0000e+00
2.0818e-03 1.1549e-03 0.0000e+00
2.2301e-03 1.1531e-03 0.0000e+00
2.3780e-03 1.1514e-03 0.0000e+00
2.5257e-03 1.1499e-03 0.0000e+00
2.6759e-03 1.1457e-03 0.0000e+00
2.8242e-03 1.1453e-03 0.0000e+00
2.9694e-03 1.1439e-03 0.0000e+00
3.1227e-03 1.1252e-03 0.0000e+00
3.2336e-03 1.1605e-03 0.0000e+00
1.4743e-04 1.3196e-03 0.0000e+00
2.9488e-04 1.3196e-03 0.0000e+00
4.4246e-04 1.3194e-03 0.0000e+00
5.9033e-04 1.3189e-03 0.0000e+00
7.3897e-04 1.3179e-03 0.0000e+00
8.8875e-04 1.3162e-03 0.0000e+00
1.0391e-03 1.3139e-03 0.0000e+00
1.1892e-03 1.3114e-03 0.0000e+00
1.3391e-03 1.3090e-03 0.0000e+00
1.4887e-03 1.3067e-03 0.0000e+00
1.6379e-03 1.3045e-03 0.0000e+00
1.7868e-03 1.3026e-03 0.0000e+00
1.9354e-03 1.3007e-03 0.0000e+00
2.0836e-03 1.2991e-03 0.0000e+00
2.2316e-03 1.2976e-03 0.0000e+00
2.3793e-03 1.2963e-03 0.0000e+00
2.5268e-03 1.2950e-03 0.0000e+00
2.6742e-03 1.2937e-03 0.0000e+00
2.8224e-03 1.2916e-03 0.0000e+00
2.9708e-03 1.2897e-03 0.0000e+00
3.1171e-03 1.2840e-03 0.0000e+00
3.2649e-03 1.2752e-03 0.0000e+00
1.4774e-04 1.4656e-03 0.0000e+00
2.9567e-04 1.4653e-03 0.0000e+00
4.4410e-04 1.4646e-03 0.0000e+00
5.9333e-04 1.4632e-03 0.0000e+00
7.4325e-04 1.4612e-03 0.0000e+00
8.9335e-04 1.4587e-03 0.0000e+00
1.0433e-03 1.4562e-03 0.0000e+00
1.1931e-03 1.4539e-03 0.0000e+00
1.3425e-03 1.4517e-03 0.0000e+00
1.4916e-03 1.4497e-03 0.0000e+00
1.6403e-03 1.4479e-03 0.0000e+00
1.7888e-03 1.4462e-03 0.0000e+00
1.9370e-03 1.4448e-03 0.0000e+00
2.0850e-03 1.4434e-03 0.0000e+00
2.2328e-03 1.4422e-03 0.0000e+00
2.3804e-03 1.4411e-03 0.0000e+00
2.5278e-03 1.4401e-03 0.0000e+00
2.6751e-03 1.4390e-03 0.0000e+00
2.8223e-03 1.4380e-03 0.0000e+00
2.9694e-03 1.4371e-03 0.0000e+00
3.1217e-03 1.4352e-03 0.0000e+00
3.2715e-03 1.4361e-03 0.0000e+00
1.4858e-04 1.6104e-03 0.0000e+00
2.9756e-04 1.6095e-03 0.0000e+00
4.4712e-04 1.6079e-03 0.0000e+00
5.9712e-04 1.6057e-03 0.0000e+00
7.4721e-04 1.6032e-03 0.0000e+00
8.9709e-04 1.6008e-03 0.0000e+00
1.0467e-03 1.5985e-03 0.0000e+00
1.1960e-03 1.5964e-03 0.0000e+00
1.3450e-03 1.5945e-03 0.0000e+00
1.4937e-03 1.5929e-03 0.0000e+00
1.6421e-03 1.5914e-03 0.0000e+00
1.7903e-03 1.5901e-03 0.0000e+00
1.9383e-03 1.5889e-03 0.0000e+00
2.0861e-03 1.5879e-03 0.0000e+00
2.2337e-03 1.5869e-03 0.0000e+00
2.3812e-03 1.5860e-03 0.0000e+00
2.5286e-03 1.5852e-03 0.0000e+00
2.6758e-03 1.5844e-03 0.0000e+00
2.8230e-03 1.5836e-03 0.0000e+00
2.9717e-03 1.5837e-03 0.0000e+00
3.1228e-03 1.5857e-03 0.0000e+00
3.2960e-03 1.5975e-03 0.0000e+00
1.4985e-04 1.7530e-03 0.0000e+00
2.9995e-04 1.7516e-03 0.0000e+00
4.5020e-04 1.7495e-03 0.0000e+00
6.0038e-04 1.7471e-03 0.0000e+00
7.5031e-04 1.7448e-03 0.0000e+00
8.9994e-04 1.7426e-03 0.0000e+00
1.0492e-03 1.7407e-03 0.0000e+00
1.1982e-03 1.7390e-03 0.0000e+00
1.3469e-03 1.7375e-03 0.0000e+00
1.4953e-03 1.7362e-03 0.0000e+00
1.6435e-03 1.7351e-03 0.0000e+00
1.7914e-03 1.7341e-03 0.0000e+00
1.9393e-03 1.7332e-03 0.0000e+00
2.0869e-03 1.7324e-03 0.0000e+00
2.2345e-03 1.7317e-03 0.0000e+00
2.3819e-03 1.7310e-03 0.0000e+00
2.5292e-03 1.7303e-03 0.0000e+00
2.6764e-03 1.7297e-03 0.0000e+00
2.8235e-03 1.7291e-03 0.0000e+00
2.9698e-03 1.7286e-03 0.0000e+00
3.1200e-03 1.7280e-03 0.0000e+00
3.2609e-03 1.7284e-03 0.0000e+00
1.5102e-04 1.8933e-03 0.0000e+00
3.0192e-04 1.8919e-03 0.0000e+00
4.5253e-04 1.8899e-03 0.0000e+00
6.0274e-04 1.8880e-03 0.0000e+00
7.5254e-04 1.8861e-03 0.0000e+00
9.0193e-04 1.8844e-03 0.0000e+00
1.0510e-03 1.8829e-03 0.0000e+00
1.1997e-03 1.8817e-03 0.0000e+00
1.3481e-03 1.8806e-03 0.0000e+00
1.4963e-03 1.8796e-03 0.0000e+00
1.6443e-03 1.8788e-03 0.0000e+00
1.7922e-03 1.8781e-03 0.0000e+00
1.9399e-03 1.8775e-03 0.0000e+00
2.0875e-03 1.8769e-03 0.0000e+00
2.2350e-03 1.8764e-03 0.0000e+00
2.3823e-03 1.8759e-03 0.0000e+00
2.5296e-03 1.8755e-03 0.0000e+00
2.6768e-03 1.8751e-03 0.0000e+00
2.8238e-03 1.8747e-03 0.0000e+00
2.9719e-03 1.8734e-03 0.0000e+00
3.1202e-03 1.8712e-03 0.0000e+00
3.2804e-03 1.8590e-03 0.0000e+00
3.3872e-03 1.8922e-03 0.0000e+00
1.5172e-04 2.0320e-03 0.0000e+00
3.0308e-04 2.0310e-03 0.0000e+00
4.5390e-04 2.0297e-03 0.0000e+00
6.0416e-04 2.0284e-03 0.0000e+00
7.5386e-04 2.0272e-03 0.0000e+00
9.0312e-04 2.0261e-03 0.0000e+00
1.0520e-03 2.0252e-03 0.0000e+00
1.2005e-03 2.0244e-03 0.0000e+00
1.3488e-03 2.0237e-03 0.0000e+00
1.4969e-03 2.0231e-03 0.0000e+00
1.6448e-03 2.0226e-03 0.0000e+00
1.7926e-03 2.0222e-03 0.0000e+00
1.9403e-03 2.0218e-03 0.0000e+00
2.0878e-03 2.0215e-03 0.0000e+00
2.2352e-03 2.0212e-03 0.0000e+00
2.3826e-03 2.0209e-03 0.0000e+00
2.5298e-03 2.0207e-03 0.0000e+00
2.6770e-03 2.0204e-03 0.0000e+00
2.8240e-03 2.0202e-03 0.0000e+00
2.9710e-03 2.0200e-03 0.0000e+00
3.1198e-03 2.0171e-03 0.0000e+00
3.2667e-03 2.0168e-03 0.0000e+00
3.4032e-03 2.0073e-03 0.0000e+00
1.5197e-04 2.1699e-03 0.0000e+00
3.0349e-04 2.1695e-03 0.0000e+00
4.5440e-04 2.1691e-03 0.0000e+00
6.0466e-04 2.1686e-03 0.0000e+00
7.5434e-04 2.1682e-03 0.0000e+00
9.0351e-04 2.1678e-03 0.0000e+00
1.0523e-03 2.1674e-03 0.0000e+00
1.2008e-03 2.1671e-03 0.0000e+00
1.3490e-03 2.1669e-03 0.0000e+00
1.4971e-03 2.1667e-03 0.0000e+00
1.6449e-03 2.1665e-03 0.0000e+00
1.7927e-03 2.1663e-03 0.0000e+00
1.9403e-03 2.1662e-03 0.0000e+00
2.0878e-03 2.1661e-03 0.0000e+00
2.2353e-03 2.1660e-03 0.0000e+00
2.3826e-03 2.1659e-03 0.0000e+00
2.5298e-03 2.1658e-03 0.0000e+00
2.6770e-03 2.1658e-03 0.0000e+00
2.8240e-03 2.1658e-03 0.0000e+00
2.9710e-03 2.1658e-03 0.0000e+00
3.1196e-03 2.1685e-03 0.0000e+00
3.2651e-03 2.1687e-03 0.0000e+00
3.4037e-03 2.1791e-03 0.0000e+00
1.5185e-04 2.3076e-03 0.0000e+00
3.0327e-04 2.3080e-03 0.0000e+00
4.5411e-04 2.3085e-03 0.0000e+00
6.0433e-04 2.3089e-03 0.0000e+00
7.5398e-04 2.3092e-03 0.0000e+00
9.0316e-04 2.3095e-03 0.0000e+00
1.0520e-03 2.3098e-03 0.0000e+00
1.2004e-03 2.3099e-03 0.0000e+00
1.3487e-03 2.3101e-03 0.0000e+00
1.4968e-03 2.3102e-03 0.0000e+00
1.6446e-03 2.3103e-03 0.0000e+00
1.7924e-03 2.3104e-03 0.0000e+00
1.9401e-03 2.3106e-03 0.0000e+00
2.0876e-03 2.3107e-03 0.0000e+00
2.2350e-03 2.3108e-03 0.0000e+00
2.3824e-03 2.3109e-03 0.0000e+00
2.5296e-03 2.3110e-03 0.0000e+00
2.6768e-03 2.3112e-03 0.0000e+00
2.8239e-03 2.3113e-03 0.0000e+00
2.9718e-03 2.3124e-03 0.0000e+00
3.1180e-03 2.3144e-03 0.0000e+00
3.2751e-03 2.3275e-03 0.0000e+00
3.3800e-03 2.2963e-03 0.0000e+00
1.5136e-04 2.4460e-03 0.0000e+00
3.0242e-04 2.4469e-03 0.0000e+00
4.5305e-04 2.4481e-03 0.0000e+00
6.0318e-04 2.4493e-03 0.0000e+00
7.5283e-04 2.4504e-03 0.0000e+00
9.0206e-04 2.4513e-03 0.0000e+00
1.0509e-03 2.4521e-03 0.0000e+00
1.1995e-03 2.4528e-03 0.0000e+00
1.3479e-03 2.4533e-03 0.0000e+00
1.4960e-03 2.4538e-03 0.0000e+00
1.6440e-03 2.4542e-03 0.0000e+00
1.7918e-03 2.4546e-03 0.0000e+00
1.9395e-03 2.4549e-03 0.0000e+00
2.0871e-03 2.4552e-03 0.0000e+00
2.2346e-03 2.4556e-03 0.0000e+00
2.3820e-03 2.4559e-03 0.0000e+00
2.5293e-03 2.4562e-03 0.0000e+00
2.6765e-03 2.4565e-03 0.0000e+00
2.8235e-03 2.4569e-03 0.0000e+00
2.9694e-03 2.4572e-03 0.0000e+00
3.1187e-03 2.4576e-03 0.0000e+00
3.2534e-03 2.4578e-03 0.0000e+00
3.4020e-03 2.4542e-03 0.0000e+00
1.5042e-04 2.5855e-03 0.0000e+00
3.0087e-04 2.5868e-03 0.0000e+00
4.5117e-04 2.5884e-03 0.0000e+00
6.0120e-04 2.5902e-03 0.0000e+00
7.5089e-04 2.5918e-03 0.0000e+00
9.0024e-04 2.5933e-03 0.0000e+00
1.0493e-03 2.5945e-03 0.0000e+00
1.1980e-03 2.5956e-03 0.0000e+00
1.3465e-03 2.5965e-03 0.0000e+00
1.4948e-03 2.5973e-03 0.0000e+00
1.6429e-03 2.5981e-03 0.0000e+00
1.7909e-03 2.5987e-03 0.0000e+00
1.9387e-03 2.5993e-03 0.0000e+00
2.0863e-03 2.5998e-03 0.0000e+00
2.2339e-03 2.6003e-03 0.0000e+00
2.3813e-03 2.6008e-03 0.0000e+00
2.5287e-03 2.6014e-03 0.0000e+00
2.6759e-03 2.6019e-03 0.0000e+00
2.8230e-03 2.6024e-03 0.0000e+00
2.9720e-03 2.6021e-03 0.0000e+00
3.1260e-03 2.6025e-03 0.0000e+00
3.3001e-03 2.5891e-03 0.0000e+00
1.4919e-04 2.7270e-03 0.0000e+00
2.9872e-04 2.7280e-03 0.0000e+00
4.4853e-04 2.7297e-03 0.0000e+00
5.9841e-04 2.7316e-03 0.0000e+00
7.4818e-04 2.7336e-03 0.0000e+00
8.9770e-04 2.7354e-03 0.0000e+00
1.0470e-03 2.7370e-03 0.0000e+00
1.1959e-03 2.7384e-03 0.0000e+00
1.3447e-03 2.7397e-03 0.0000e+00
1.4932e-03 2.7409e-03 0.0000e+00
1.6415e-03 2.7419e-03 0.0000e+00
1.7896e-03 2.7428e-03 0.0000e+00
1.9375e-03 2.7436e-03 0.0000e+00
2.0853e-03 2.7444e-03 0.0000e+00
2.2330e-03 2.7451e-03 0.0000e+00
2.3805e-03 2.7458e-03 0.0000e+00
2.5279e-03 2.7465e-03 0.0000e+00
2.6752e-03 2.7472e-03 0.0000e+00
2.8224e-03 2.7479e-03 0.0000e+00
2.9737e-03 2.7523e-03 0.0000e+00
3.1270e-03 2.7524e-03 0.0000e+00
3.2963e-03 2.7629e-03 0.0000e+00
1.4814e-04 2.8707e-03 0.0000e+00
2.9655e-04 2.8712e-03 0.0000e+00
4.4549e-04 2.8723e-03 0.0000e+00
5.9497e-04 2.8738e-03 0.0000e+00
7.4473e-04 2.8757e-03 0.0000e+00
8.9446e-04 2.8777e-03 0.0000e+00
1.0440e-03 2.8796e-03 0.0000e+00
1.1932e-03 2.8813e-03 0.0000e+00
1.3423e-03 2.8829e-03 0.0000e+00
1.4910e-03 2.8843e-03 0.0000e+00
1.6396e-03 2.8856e-03 0.0000e+00
1.7879e-03 2.8868e-03 0.0000e+00
1.9361e-03 2.8879e-03 0.0000e+00
2.0840e-03 2.8888e-03 0.0000e+00
2.2318e-03 2.8898e-03 0.0000e+00
2.3794e-03 2.8907e-03 0.0000e+00
2.5269e-03 2.8916e-03 0.0000e+00
2.6743e-03 2.8925e-03 0.0000e+00
2.8243e-03 2.8962e-03 0.0000e+00
2.9724e-03 2.8990e-03 0.0000e+00
3.1309e-03 2.9095e-03 0.0000e+00
3.2515e-03 2.8795e-03 0.0000e+00
1.4761e-04 3.0161e-03 0.0000e+00
2.9526e-04 3.0163e-03 0.0000e+00
4.4314e-04 3.0167e-03 0.0000e+00
5.9156e-04 3.0174e-03 0.0000e+00
7.4077e-04 3.0187e-03 0.0000e+00
8.9049e-04 3.0204e-03 0.0000e+00
1.0403e-03 3.0224e-03 0.0000e+00
1.1899e-03 3.0243e-03 0.0000e+00
1.3392e-03 3.0260e-03 0.0000e+00
1.4883e-03 3.0277e-03 0.0000e+00
1.6372e-03 3.0293e-03 0.0000e+00
1.7858e-03 3.0307e-03 0.0000e+00
1.9342e-03 3.0320e-03 0.0000e+00
2.0824e-03 3.0333e-03 0.0000e+00
2.2304e-03 3.0344e-03 0.0000e+00
2.3782e-03 3.0356e-03 0.0000e+00
2.5258e-03 3.0367e-03 0.0000e+00
2.6742e-03 3.0387e-03 0.0000e+00
2.8212e-03 3.0417e-03 0.0000e+00
2.9816e-03 3.0565e-03 0.0000e+00
3.0977e-03 3.0252e-03 0.0000e+00
3.2536e-03 3.0401e-03 0.0000e+00
1.4739e-04 3.1623e-03 0.0000e+00
2.9479e-04 3.1624e-03 0.0000e+00
4.4224e-04 3.1625e-03 0.0000e+00
5.8980e-04 3.1627e-03 0.0000e+00
7.3768e-04 3.1632e-03 0.0000e+00
8.8628e-04 3.1640e-03 0.0000e+00
1.0358e-03 3.1654e-03 0.0000e+00
1.1858e-03 3.1673e-03 0.0000e+00
1.3355e-03 3.1693e-03 0.0000e+00
1.4849e-03 3.1710e-03 0.0000e+00
1.6342e-03 3.1728e-03 0.0000e+00
1.7832e-03 3.1745e-03 0.0000e+00
1.9320e-03 3.1761e-03 0.0000e+00
2.0805e-03 3.1776e-03 0.0000e+00
2.2287e-03 3.1790e-03 0.0000e+00
2.3767e-03 3.1804e-03 0.0000e+00
2.5244e-03 3.1817e-03 0.0000e+00
2.6709e-03 3.1831e-03 0.0000e+00
2.8206e-03 3.1872e-03 0.0000e+00
2.9518e-03 3.1876e-03 0.0000e+00
3.1114e-03 3.1860e-03 0.0000e+00
3.2518e-03 3.1854e-03 0.0000e+00
1.4727e-04 3.3088e-03 0.0000e+00
2.9456e-04 3.3089e-03 0.0000e+00
4.4187e-04 3.3089e-03 0.0000e+00
5.8921e-04 3.3090e-03 0.0000e+00
7.3660e-04 3.3091e-03 0.0000e+00
8.8415e-04 3.3093e-03 0.0000e+00
1.0321e-03 3.3098e-03 0.0000e+00
1.1809e-03 3.3109e-03 0.0000e+00
1.3308e-03 3.3125e-03 0.0000e+00
1.4807e-03 3.3144e-03 0.0000e+00
1.6304e-03 3.3162e-03 0.0000e+00
1.7799e-03 3.3180e-03 0.0000e+00
1.9291e-03 3.3199e-03 0.0000e+00
2.0781e-03 3.3217e-03 0.0000e+00
2.2267e-03 3.3234e-03 0.0000e+00
2.3749e-03 3.3251e-03 0.0000e+00
2.5229e-03 3.3267e-03 0.0000e+00
2.6740e-03 3.3302e-03 0.0000e+00
2.8228e-03 3.3319e-03 0.0000e+00
2.9903e-03 3.3306e-03 0.0000e+00
3.0996e-03 3.3322e-03 0.0000e+00
1.4721e-04 3.4555e-03 0.0000e+00
2.9442e-04 3.4556e-03 0.0000e+00
4.4165e-04 3.4556e-03 0.0000e+00
5.8889e-04 3.4556e-03 0.0000e+00
7.3618e-04 3.4557e-03 0.0000e+00
8.8347e-04 3.4557e-03 0.0000e+00
1.0308e-03 3.4558e-03 0.0000e+00
1.1783e-03 3.4560e-03 0.0000e+00
1.3265e-03 3.4566e-03 0.0000e+00
1.4757e-03 3.4579e-03 0.0000e+00
1.6257e-03 3.4596e-03 0.0000e+00
1.7756e-03 3.4615e-03 0.0000e+00
1.9253e-03 3.4634e-03 0.0000e+00
2.0749e-03 3.4654e-03 0.0000e+00
2.2241e-03 3.4676e-03 0.0000e+00
2.3729e-03 3.4696e-03 0.0000e+00
2.5221e-03 3.4725e-03 0.0000e+00
2.6697e-03 3.4762e-03 0.0000e+00
2.8315e-03 3.4903e-03 0.0000e+00
2.9493e-03 3.4585e-03 0.0000e+00
3.1058e-03 3.4779e-03 0.0000e+00
1.4718e-04 3.6023e-03 0.0000e+00
2.9435e-04 3.6023e-03 0.0000e+00
4.4153e-04 3.6024e-03 0.0000e+00
5.8872e-04 3.6024e-03 0.0000e+00
7.3591e-04 3.6024e-03 0.0000e+00
8.8311e-04 3.6024e-03 0.0000e+00
1.0303e-03 3.6024e-03 0.0000e+00
1.1776e-03 3.6025e-03 0.0000e+00
1.3249e-03 3.6025e-03 0.0000e+00
1.4725e-03 3.6028e-03 0.0000e+00
1.6209e-03 3.6037e-03 0.0000e+00
1.7705e-03 3.6050e-03 0.0000e+00
1.9205e-03 3.6068e-03 0.0000e+00
2.0705e-03 3.6088e-03 0.0000e+00
2.2205e-03 3.6111e-03 0.0000e+00
2.3701e-03 3.6137e-03 0.0000e+00
2.5179e-03 3.6162e-03 0.0000e+00
2.6676e-03 3.6204e-03 0.0000e+00
2.8001e-03 3.6233e-03 0.0000e+00
2.9598e-03 3.6217e-03 0.0000e+00
3.0991e-03 3.6219e-03 0.0000e+00
1.4715e-04 3.7492e-03 0.0000e+00
2.9430e-04 3.7492e-03 0.0000e+00
4.4145e-04 3.7492e-03 0.0000e+00
5.8860e-04 3.7492e-03 0.0000e+00
7.3576e-04 3.7492e-03 0.0000e+00
8.8291e-04 3.7492e-03 0.0000e+00
1.0301e-03 3.7492e-03 0.0000e+00
1.1772e-03 3.7492e-03 0.0000e+00
1.3244e-03 3.7492e-03 0.0000e+00
1.4716e-03 3.7493e-03 0.0000e+00
1.6189e-03 3.7493e-03 0.0000e+00
1.7666e-03 3.7497e-03 0.0000e+00
1.9154e-03 3.7508e-03 0.0000e+00
2.0651e-03 3.7522e-03 0.0000e+00
2.2154e-03 3.7542e-03 0.0000e+00
2.3660e-03 3.7569e-03 0.0000e+00
2.5177e-03 3.7602e-03 0.0000e+00
2.6669e-03 3.7634e-03 0.0000e+00
2.8388e-03 3.7672e-03 0.0000e+00
2.9460e-03 3.7683e-03 0.0000e+00
1.4712e-04 3.8957e-03 0.0000e+00
2.9425e-04 3.8957e-03 0.0000e+00
4.4137e-04 3.8957e-03 0.0000e+00
5.8850e-04 3.8958e-03 0.0000e+00
7.3562e-04 3.8958e-03 0.0000e+00
8.8276e-04 3.8958e-03 0.0000e+00
1.0299e-03 3.8958e-03 0.0000e+00
1.1770e-03 3.8958e-03 0.0000e+00
1.3242e-03 3.8958e-03 0.0000e+00
1.4713e-03 3.8958e-03 0.0000e+00
1.6184e-03 3.8958e-03 0.0000e+00
1.7656e-03 3.8958e-03 0.0000e+00
1.9129e-03 3.8959e-03 0.0000e+00
2.0608e-03 3.8965e-03 0.0000e+00
2.2099e-03 3.8975e-03 0.0000e+00
2.3600e-03 3.8993e-03 0.0000e+00
2.5102e-03 3.9024e-03 0.0000e+00
2.6674e-03 3.9080e-03 0.0000e+00
2.8053e-03 3.9109e-03 0.0000e+00
2.9597e-03 3.9112e-03 0.0000e+00
1.4710e-04 4.0409e-03 0.0000e+00
2.9420e-04 4.0402e-03 0.0000e+00
4.4130e-04 4.0402e-03 0.0000e+00
5.8840e-04 4.0402e-03 0.0000e+00
7.3550e-04 4.0402e-03 0.0000e+00
8.8261e-04 4.0402e-03 0.0000e+00
1.0297e-03 4.0402e-03 0.0000e+00
1.1768e-03 4.0402e-03 0.0000e+00
1.3239e-03 4.0402e-03 0.0000e+00
1.4710e-03 4.0402e-03 0.0000e+00
1.6181e-03 4.0402e-03 0.0000e+00
1.7652e-03 4.0402e-03 0.0000e+00
1.9123e-03 4.0402e-03 0.0000e+00
2.0594e-03 4.0403e-03 0.0000e+00
2.2068e-03 4.0405e-03 0.0000e+00
2.3549e-03 4.0412e-03 0.0000e+00
2.5093e-03 4.0445e-03 0.0000e+00
2.6710e-03 4.0504e-03 0.0000e+00
2.8607e-03 4.0563e-03 0.0000e+00
1.4708e-04 4.1819e-03 0.0000e+00
2.9416e-04 4.1802e-03 0.0000e+00
4.4123e-04 4.1798e-03 0.0000e+00
5.8831e-04 4.1798e-03 0.0000e+00
7.3539e-04 4.1798e-03 0.0000e+00
8.8247e-04 4.1798e-03 0.0000e+00
1.0296e-03 4.1798e-03 0.0000e+00