# vtk DataFile Version 3.0
VTK Example
ASCII
DATASET UNSTRUCTURED_GRID
POINTS 972 float 
0 -4.12459e-06 0.0
0.00254845 -7.33021e-06 0.0
0.00254845 0.00569355 0.0
0 0.00569191 0.0
0.00014552 -4.8452e-06 0.0
0.000293765 -5.02728e-06 0.0
0.000441096 -5.04331e-06 0.0
0.000588121 -5.04655e-06 0.0
0.000735264 -5.02254e-06 0.0
0.000882347 -5.03905e-06 0.0
0.00102899 -5.04803e-06 0.0
0.00117596 -5.11493e-06 0.0
0.00132401 -5.14202e-06 0.0
0.00147097 -5.22832e-06 0.0
0.00161802 -5.30785e-06 0.0
0.00176498 -5.42167e-06 0.0
0.00191221 -5.50489e-06 0.0
0.00205887 -5.58613e-06 0.0
0.00220677 -5.64302e-06 0.0
0.00235202 -5.29756e-06 0.0
0.00265807 4.17595e-05 0.0
0.00266567 0.000140669 0.0
0.00268928 0.0002622 0.0
0.00270788 0.000378203 0.0
0.00272858 0.000496599 0.0
0.00274802 0.000612711 0.0
0.00276786 0.000728929 0.0
0.00278721 0.000844319 0.0
0.00280674 0.000960469 0.0
0.00282577 0.00107515 0.0
0.00284463 0.00118971 0.0
0.00286304 0.00130388 0.0
0.00288101 0.00141795 0.0
0.00289835 0.00153182 0.0
0.00291498 0.00164565 0.0
0.00293073 0.00175941 0.0
0.00294547 0.00187318 0.0
0.00295905 0.00198698 0.0
0.00297132 0.00210085 0.0
0.00298214 0.00221479 0.0
0.00299139 0.00232881 0.0
0.00299893 0.00244291 0.0
0.00300468 0.00255708 0.0
0.00300856 0.00267131 0.0
0.00301052 0.00278558 0.0
0.00301052 0.00290063 0.0
0.00300857 0.00301489 0.0
0.00300469 0.00312912 0.0
0.00299894 0.00324329 0.0
0.00299139 0.00335739 0.0
0.00298215 0.00347142 0.0
0.00297133 0.00358536 0.0
0.00295905 0.00369922 0.0
0.00294548 0.00381302 0.0
0.00293073 0.0039268 0.0
0.00291499 0.00404056 0.0
0.00289836 0.00415439 0.0
0.00288102 0.00426826 0.0
0.00286304 0.00438233 0.0
0.00284463 0.0044965 0.0
0.00282577 0.00461106 0.0
0.00280673 0.00472574 0.0
0.0027872 0.00484189 0.0
0.00276785 0.00495728 0.0
0.00274796 0.00507382 0.0
0.00272853 0.00518985 0.0
0.00270785 0.00530817 0.0
0.00268925 0.00542417 0.0
0.00266565 0.00554562 0.0
0.00265804 0.00564451 0.0
0.00235201 0.00569151 0.0
0.00220677 0.00569186 0.0
0.00205887 0.0056918 0.0
0.00191221 0.00569172 0.0
0.00176498 0.00569164 0.0
0.00161802 0.00569153 0.0
0.00147097 0.00569145 0.0
0.00132401 0.00569136 0.0
0.00117596 0.00569133 0.0
0.00102899 0.00569126 0.0
0.000882347 0.00569125 0.0
0.000735265 0.00569124 0.0
0.000588124 0.00569126 0.0
0.000441125 0.00569125 0.0
0.000293993 0.00569129 0.0
0.000146922 0.00569122 0.0
0 0.00554461 0.0
0 0.00539837 0.0
0 0.00525304 0.0
0 0.00510869 0.0
0 0.00496547 0.0
0 0.00482409 0.0
0 0.00468483 0.0
0 0.00454909 0.0
0 0.00441688 0.0
0 0.00429199 0.0
0 0.00417349 0.0
0 0.00406189 0.0
0 0.00395571 0.0
0 0.00385466 0.0
0 0.0037575 0.0
0 0.00366384 0.0
0 0.00357276 0.0
0 0.00348382 0.0
0 0.00339638 0.0
0 0.00331007 0.0
0 0.00322448 0.0
0 0.00313941 0.0
0 0.00305464 0.0
0 0.00297008 0.0
0 0.00288561 0.0
0 0.0028006 0.0
0 0.00271613 0.0
0 0.00263157 0.0
0 0.00254681 0.0
0 0.00246173 0.0
0 0.00237615 0.0
0 0.00228983 0.0
0 0.0022024 0.0
0 0.00211345 0.0
0 0.00202237 0.0
0 0.00192872 0.0
0 0.00183156 0.0
0 0.00173052 0.0
0 0.00162433 0.0
0 0.00151274 0.0
0 0.00139425 0.0
0 0.00126935 0.0
0 0.00113712 0.0
0 0.00100136 0.0
0 0.000862453 0.0
0 0.000720958 0.0
0 0.000577611 0.0
0 0.00043317 0.0
0 0.000287481 0.0
0 0.000139353 0.0
0.000146478 0.000141352 0.0
0.000147603 0.00028747 0.0
0.000148114 0.000432969 0.0
0.000148671 0.000577423 0.0
0.000149415 0.000720643 0.0
0.000150453 0.000862298 0.0
0.00015193 0.00100086 0.0
0.000154178 0.00113654 0.0
0.000157491 0.00126787 0.0
0.000161639 0.00139254 0.0
0.000166248 0.00151034 0.0
0.000170765 0.00162226 0.0
0.000175059 0.00172817 0.0
0.000178918 0.00182939 0.0
0.000182335 0.00192624 0.0
0.000185166 0.00201991 0.0
0.000187468 0.00211089 0.0
0.000189248 0.00219998 0.0
0.000190578 0.00228759 0.0
0.000191507 0.0023742 0.0
0.000192141 0.00246008 0.0
0.000192559 0.00254551 0.0
0.000192823 0.00263064 0.0
0.000192975 0.00271558 0.0
0.000193044 0.00280041 0.0
0.000193044 0.0028858 0.0
0.000192975 0.00297064 0.0
0.000192823 0.00305558 0.0
0.000192558 0.0031407 0.0
0.000192141 0.00322613 0.0
0.000191506 0.00331202 0.0
0.000190577 0.00339862 0.0
0.000189247 0.00348624 0.0
0.000187468 0.00357532 0.0
0.000185165 0.00366631 0.0
0.000182333 0.00375997 0.0
0.000178915 0.00385683 0.0
0.000175056 0.00395806 0.0
0.000170762 0.00406397 0.0
0.000166246 0.00417589 0.0
0.00016164 0.00429369 0.0
0.000157497 0.00441836 0.0
0.00015419 0.00454967 0.0
0.000151945 0.00468533 0.0
0.000150462 0.00482425 0.0
0.000149427 0.00496578 0.0
0.000148696 0.00510887 0.0
0.000148166 0.00525327 0.0
0.000147757 0.00539852 0.0
0.000147304 0.00554457 0.0
0.000294362 0.000141616 0.0
0.000295256 0.000287541 0.0
0.000296218 0.000432915 0.0
0.000297325 0.000577131 0.0
0.000298846 0.000720217 0.0
0.000300964 0.00086135 0.0
0.000304118 0.000999589 0.0
0.000308941 0.00113403 0.0
0.000315685 0.0012644 0.0
0.000323896 0.00138742 0.0
0.000332615 0.00150461 0.0
0.000341428 0.00161558 0.0
0.00034981 0.00172149 0.0
0.000357562 0.00182241 0.0
0.000364247 0.00191957 0.0
0.000369827 0.00201345 0.0
0.000374239 0.00210498 0.0
0.000377638 0.00219464 0.0
0.000380171 0.002283 0.0
0.000382003 0.00237035 0.0
0.000383261 0.002457 0.0
0.000384104 0.00254315 0.0
0.000384646 0.00262898 0.0
0.000384968 0.00271459 0.0
0.000385117 0.00280009 0.0
0.000385117 0.00288612 0.0
0.000384967 0.00297162 0.0
0.000384645 0.00305723 0.0
0.000384103 0.00314306 0.0
0.00038326 0.00322921 0.0
0.000382002 0.00331586 0.0
0.00038017 0.00340321 0.0
0.000377636 0.00349157 0.0
0.000374237 0.00358124 0.0
0.000369825 0.00367277 0.0
0.000364244 0.00376664 0.0
0.000357557 0.00386381 0.0
0.000349805 0.00396473 0.0
0.000341423 0.00407065 0.0
0.000332613 0.00418161 0.0
0.000323899 0.0042988 0.0
0.000315697 0.00442181 0.0
0.000308962 0.00455218 0.0
0.000304145 0.0046866 0.0
0.000300984 0.00482519 0.0
0.00029887 0.00496621 0.0
0.000297368 0.00510917 0.0
0.000296287 0.00525335 0.0
0.000295426 0.00539859 0.0
0.000294691 0.00554456 0.0
0.000441972 0.000141655 0.0
0.000443151 0.000287608 0.0
0.00044451 0.000432771 0.0
0.000446309 0.000576806 0.0
0.000448687 0.000719343 0.0
0.000452041 0.000860029 0.0
0.000457244 0.000996972 0.0
0.000464986 0.00113012 0.0
0.000475417 0.00125816 0.0
0.000487299 0.00137972 0.0
0.000499912 0.00149509 0.0
0.000512436 0.0016054 0.0
0.000524634 0.00171045 0.0
0.000535727 0.00181148 0.0
0.000545414 0.00190879 0.0
0.00055338 0.00200344 0.0
0.00055974 0.00209583 0.0
0.000564627 0.0021866 0.0
0.000568318 0.00227608 0.0
0.000571045 0.00236462 0.0
0.000573007 0.00245242 0.0
0.000574361 0.00253968 0.0
0.000575257 0.00262654 0.0
0.000575799 0.00271315 0.0
0.000576055 0.00279961 0.0
0.000576055 0.00288661 0.0
0.000575798 0.00297307 0.0
0.000575256 0.00305967 0.0
0.00057436 0.00314653 0.0
0.000573006 0.00323379 0.0
0.000571044 0.00332159 0.0
0.000568316 0.00341013 0.0
0.000564625 0.00349961 0.0
0.000559738 0.00359039 0.0
0.000553377 0.00368278 0.0
0.00054541 0.00377742 0.0
0.000535722 0.00387474 0.0
0.00052463 0.00397577 0.0
0.000512434 0.00408082 0.0
0.000499914 0.00419112 0.0
0.000487307 0.00430649 0.0
0.000475434 0.00442804 0.0
0.000465012 0.00455607 0.0
0.000457279 0.00468921 0.0
0.000452068 0.00482651 0.0
0.000448722 0.00496709 0.0
0.000446355 0.00510951 0.0
0.00044458 0.00525354 0.0
0.00044327 0.0053986 0.0
0.000442111 0.0055446 0.0
0.000589429 0.000141715 0.0
0.00059095 0.000287561 0.0
0.000592901 0.000432628 0.0
0.000595495 0.000576191 0.0
0.000598878 0.000718293 0.0
0.000603827 0.000857826 0.0
0.000611558 0.000993444 0.0
0.00062278 0.00112398 0.0
0.000636696 0.00124992 0.0
0.000652153 0.00136888 0.0
0.000667999 0.00148286 0.0
0.000683963 0.00159157 0.0
0.000699163 0.00169621 0.0
0.00071311 0.00179696 0.0
0.000725088 0.00189494 0.0
0.000735077 0.00199047 0.0
0.000743085 0.0020842 0.0
0.00074939 0.00217638 0.0
0.000754225 0.00226738 0.0
0.000757893 0.00235738 0.0
0.000760623 0.00244662 0.0
0.000762594 0.00253526 0.0
0.000763942 0.00262345 0.0
0.00076478 0.00271132 0.0
0.00076518 0.002799 0.0
0.00076518 0.00288721 0.0
0.00076478 0.0029749 0.0
0.000763941 0.00306276 0.0
0.000762593 0.00315095 0.0
0.000760621 0.00323959 0.0
0.000757892 0.00332883 0.0
0.000754223 0.00341884 0.0
0.000749387 0.00350983 0.0
0.000743082 0.00360202 0.0
0.000735074 0.00369575 0.0
0.000725085 0.00379128 0.0
0.000713106 0.00388925 0.0
0.000699162 0.00399 0.0
0.000683965 0.00409464 0.0
0.000668006 0.00420334 0.0
0.000652167 0.00431732 0.0
0.000636717 0.00443628 0.0
0.00062281 0.00456222 0.0
0.000611596 0.00469274 0.0
0.000603855 0.00482872 0.0
0.000598916 0.00496815 0.0
0.000595538 0.00511015 0.0
0.000592955 0.00525372 0.0
0.000591022 0.0053987 0.0
0.000589486 0.00554458 0.0
0.000736921 0.000141678 0.0
0.000738954 0.000287521 0.0
0.000741617 0.000432239 0.0
0.000745178 0.000575453 0.0
0.000749812 0.000716648 0.0
0.000756904 0.000855037 0.0
0.000767995 0.000988048 0.0
0.000782743 0.00111613 0.0
0.000800236 0.00123887 0.0
0.000818605 0.00135582 0.0
0.000837575 0.00146749 0.0
0.000856074 0.00157518 0.0
0.000873762 0.00167895 0.0
0.000889567 0.00178003 0.0
0.000903305 0.00187867 0.0
0.000914781 0.00197553 0.0
0.000924223 0.00207075 0.0
0.000931806 0.00216464 0.0
0.000937828 0.00225733 0.0
0.000942509 0.00234903 0.0
0.000946093 0.0024399 0.0
0.000948761 0.00253012 0.0
0.000950648 0.00261982 0.0
0.000951849 0.00270916 0.0
0.000952434 0.00279828 0.0
0.000952434 0.00288793 0.0
0.000951849 0.00297705 0.0
0.000950647 0.00306639 0.0
0.00094876 0.0031561 0.0
0.000946092 0.00324631 0.0
0.000942507 0.00333718 0.0
0.000937826 0.00342888 0.0
0.000931803 0.00352157 0.0
0.00092422 0.00361546 0.0
0.000914778 0.00371068 0.0
0.000903303 0.00380754 0.0
0.000889567 0.00390619 0.0
0.000873765 0.00400726 0.0
0.000856081 0.00411103 0.0
0.000837588 0.00421871 0.0
0.000818624 0.00433038 0.0
0.000800262 0.00444733 0.0
0.000782774 0.00457006 0.0
0.000768033 0.00469814 0.0
0.000756923 0.00483151 0.0
0.000749844 0.00496981 0.0
0.000745213 0.00511092 0.0
0.000741654 0.00525413 0.0
0.000738992 0.00539877 0.0
0.000736944 0.00554463 0.0
0.00088448 0.000141692 0.0
0.000887063 0.000287304 0.0
[...]
POINT_DATA 972
VECTORS Position float
0.0000e+00 -4.1246e-06 0.0000e+00
2.5485e-03 -7.3302e-06 0.0000e+00
2.5484e-03 5.6935e-03 0.0000e+00
0.0000e+00 5.6919e-03 0.0000e+00
1.4552e-04 -4.8452e-06 0.0000e+00
2.9376e-04 -5.0273e-06 0.0000e+00
4.4110e-04 -5.0433e-06 0.0000e+00
5.8812e-04 -5.0466e-06 0.0000e+00
7.3526e-04 -5.0225e-06 0.0000e+00
8.8235e-04 -5.0391e-06 0.0000e+00
1.0290e-03 -5.0480e-06 0.0000e+00
1.1760e-03 -5.1149e-06 0.0000e+00
1.3240e-03 -5.1420e-06 0.0000e+00
1.4710e-03 -5.2283e-06 0.0000e+00
1.6180e-03 -5.3078e-06 0.0000e+00
1.7650e-03 -5.4217e-06 0.0000e+00
1.9122e-03 -5.5049e-06 0.0000e+00
2.0589e-03 -5.5861e-06 0.0000e+00
2.2068e-03 -5.6430e-06 0.0000e+00
2.3520e-03 -5.2976e-06 0.0000e+00
2.6581e-03 4.1760e-05 0.0000e+00
2.6657e-03 1.4067e-04 0.0000e+00
2.6893e-03 2.6220e-04 0.0000e+00
2.7079e-03 3.7820e-04 0.0000e+00
2.7286e-03 4.9660e-04 0.0000e+00
2.7480e-03 6.1271e-04 0.0000e+00
2.7679e-03 7.2893e-04 0.0000e+00
2.7872e-03 8.4432e-04 0.0000e+00
2.8067e-03 9.6047e-04 0.0000e+00
2.8258e-03 1.0752e-03 0.0000e+00
2.8446e-03 1.1897e-03 0.0000e+00
2.8630e-03 1.3039e-03 0.0000e+00
2.8810e-03 1.4180e-03 0.0000e+00
2.8984e-03 1.5318e-03 0.0000e+00
2.9150e-03 1.6456e-03 0.0000e+00
2.9307e-03 1.7594e-03 0.0000e+00
2.9455e-03 1.8732e-03 0.0000e+00
2.9590e-03 1.9870e-03 0.0000e+00
2.9713e-03 2.1009e-03 0.0000e+00
2.9821e-03 2.2148e-03 0.0000e+00
2.9914e-03 2.3288e-03 0.0000e+00
2.9989e-03 2.4429e-03 0.0000e+00
3.0047e-03 2.5571e-03 0.0000e+00
3.0086e-03 2.6713e-03 0.0000e+00
3.0105e-03 2.7856e-03 0.0000e+00
3.0105e-03 2.9006e-03 0.0000e+00
3.0086e-03 3.0149e-03 0.0000e+00
3.0047e-03 3.1291e-03 0.0000e+00
2.9989e-03 3.2433e-03 0.0000e+00
2.9914e-03 3.3574e-03 0.0000e+00
2.9821e-03 3.4714e-03 0.0000e+00
2.9713e-03 3.5854e-03 0.0000e+00
2.9591e-03 3.6992e-03 0.0000e+00
2.9455e-03 3.8130e-03 0.0000e+00
2.9307e-03 3.9268e-03 0.0000e+00
2.9150e-03 4.0406e-03 0.0000e+00
2.8984e-03 4.1544e-03 0.0000e+00
2.8810e-03 4.2683e-03 0.0000e+00
2.8630e-03 4.3823e-03 0.0000e+00
2.8446e-03 4.4965e-03 0.0000e+00
2.8258e-03 4.6111e-03 0.0000e+00
2.8067e-03 4.7257e-03 0.0000e+00
2.7872e-03 4.8419e-03 0.0000e+00
2.7679e-03 4.9573e-03 0.0000e+00
2.7480e-03 5.0738e-03 0.0000e+00
2.7285e-03 5.1898e-03 0.0000e+00
2.7078e-03 5.3082e-03 0.0000e+00
2.6893e-03 5.4242e-03 0.0000e+00
2.6656e-03 5.5456e-03 0.0000e+00
2.6580e-03 5.6445e-03 0.0000e+00
2.3520e-03 5.6915e-03 0.0000e+00
2.2068e-03 5.6919e-03 0.0000e+00
2.0589e-03 5.6918e-03 0.0000e+00
1.9122e-03 5.6917e-03 0.0000e+00
1.7650e-03 5.6916e-03 0.0000e+00
1.6180e-03 5.6915e-03 0.0000e+00
1.4710e-03 5.6914e-03 0.0000e+00
1.3240e-03 5.6914e-03 0.0000e+00
1.1760e-03 5.6913e-03 0.0000e+00
1.0290e-03 5.6913e-03 0.0000e+00
8.8235e-04 5.6913e-03 0.0000e+00
7.3526e-04 5.6912e-03 0.0000e+00
5.8812e-04 5.6913e-03 0.0000e+00
4.4112e-04 5.6913e-03 0.0000e+00
2.9399e-04 5.6913e-03 0.0000e+00
1.4692e-04 5.6912e-03 0.0000e+00
0.0000e+00 5.5446e-03 0.0000e+00
0.0000e+00 5.3984e-03 0.0000e+00
0.0000e+00 5.2530e-03 0.0000e+00
0.0000e+00 5.1087e-03 0.0000e+00
0.0000e+00 4.9655e-03 0.0000e+00
0.0000e+00 4.8241e-03 0.0000e+00
0.0000e+00 4.6848e-03 0.0000e+00
0.0000e+00 4.5491e-03 0.0000e+00
0.0000e+00 4.4169e-03 0.0000e+00
0.0000e+00 4.2920e-03 0.0000e+00
0.0000e+00 4.1735e-03 0.0000e+00
0.0000e+00 4.0619e-03 0.0000e+00
0.0000e+00 3.9557e-03 0.0000e+00
0.0000e+00 3.8547e-03 0.0000e+00
0.0000e+00 3.7575e-03 0.0000e+00
0.0000e+00 3.6638e-03 0.0000e+00
0.0000e+00 3.5728e-03 0.0000e+00
0.0000e+00 3.4838e-03 0.0000e+00
0.0000e+00 3.3964e-03 0.0000e+00
0.0000e+00 3.3101e-03 0.0000e+00
0.0000e+00 3.2245e-03 0.0000e+00
0.0000e+00 3.1394e-03 0.0000e+00
0.0000e+00 3.0546e-03 0.0000e+00
0.0000e+00 2.9701e-03 0.0000e+00
0.0000e+00 2.8856e-03 0.0000e+00
0.0000e+00 2.8006e-03 0.0000e+00
0.0000e+00 2.7161e-03 0.0000e+00
0.0000e+00 2.6316e-03 0.0000e+00
0.0000e+00 2.5468e-03 0.0000e+00
0.0000e+00 2.4617e-03 0.0000e+00
0.0000e+00 2.3761e-03 0.0000e+00
0.0000e+00 2.2898e-03 0.0000e+00
0.0000e+00 2.2024e-03 0.0000e+00
0.0000e+00 2.1135e-03 0.0000e+00
0.0000e+00 2.0224e-03 0.0000e+00
0.0000e+00 1.9287e-03 0.0000e+00
0.0000e+00 1.8316e-03 0.0000e+00
0.0000e+00 1.7305e-03 0.0000e+00
0.0000e+00 1.6243e-03 0.0000e+00
0.0000e+00 1.5127e-03 0.0000e+00
0.0000e+00 1.3943e-03 0.0000e+00
0.0000e+00 1.2693e-03 0.0000e+00
0.0000e+00 1.1371e-03 0.0000e+00
0.0000e+00 1.0014e-03 0.0000e+00
0.0000e+00 8.6245e-04 0.0000e+00
0.0000e+00 7.2096e-04 0.0000e+00
0.0000e+00 5.7761e-04 0.0000e+00
0.0000e+00 4.3317e-04 0.0000e+00
0.0000e+00 2.8748e-04 0.0000e+00
0.0000e+00 1.3935e-04 0.0000e+00
1.4648e-04 1.4135e-04 0.0000e+00
1.4760e-04 2.8747e-04 0.0000e+00
1.4811e-04 4.3297e-04 0.0000e+00
1.4867e-04 5.7742e-04 0.0000e+00
1.4942e-04 7.2064e-04 0.0000e+00
1.5045e-04 8.6230e-04 0.0000e+00
1.5193e-04 1.0009e-03 0.0000e+00
1.5418e-04 1.1365e-03 0.0000e+00
1.5749e-04 1.2679e-03 0.0000e+00
1.6164e-04 1.3925e-03 0.0000e+00
1.6625e-04 1.5103e-03 0.0000e+00
1.7077e-04 1.6223e-03 0.0000e+00
1.7506e-04 1.7282e-03 0.0000e+00
1.7892e-04 1.8294e-03 0.0000e+00
1.8233e-04 1.9262e-03 0.0000e+00
1.8517e-04 2.0199e-03 0.0000e+00
1.8747e-04 2.1109e-03 0.0000e+00
1.8925e-04 2.2000e-03 0.0000e+00
1.9058e-04 2.2876e-03 0.0000e+00
1.9151e-04 2.3742e-03 0.0000e+00
1.9214e-04 2.4601e-03 0.0000e+00
1.9256e-04 2.5455e-03 0.0000e+00
1.9282e-04 2.6306e-03 0.0000e+00
1.9298e-04 2.7156e-03 0.0000e+00
1.9304e-04 2.8004e-03 0.0000e+00
1.9304e-04 2.8858e-03 0.0000e+00
1.9298e-04 2.9706e-03 0.0000e+00
1.9282e-04 3.0556e-03 0.0000e+00
1.9256e-04 3.1407e-03 0.0000e+00
1.9214e-04 3.2261e-03 0.0000e+00
1.9151e-04 3.3120e-03 0.0000e+00
1.9058e-04 3.3986e-03 0.0000e+00
1.8925e-04 3.4862e-03 0.0000e+00
1.8747e-04 3.5753e-03 0.0000e+00
1.8516e-04 3.6663e-03 0.0000e+00
1.8233e-04 3.7600e-03 0.0000e+00
1.7892e-04 3.8568e-03 0.0000e+00
1.7506e-04 3.9581e-03 0.0000e+00
1.7076e-04 4.0640e-03 0.0000e+00
1.6625e-04 4.1759e-03 0.0000e+00
1.6164e-04 4.2937e-03 0.0000e+00
1.5750e-04 4.4184e-03 0.0000e+00
1.5419e-04 4.5497e-03 0.0000e+00
1.5194e-04 4.6853e-03 0.0000e+00
1.5046e-04 4.8242e-03 0.0000e+00
1.4943e-04 4.9658e-03 0.0000e+00
1.4870e-04 5.1089e-03 0.0000e+00
1.4817e-04 5.2533e-03 0.0000e+00
1.4776e-04 5.3985e-03 0.0000e+00
1.4730e-04 5.5446e-03 0.0000e+00
2.9436e-04 1.4162e-04 0.0000e+00
2.9526e-04 2.8754e-04 0.0000e+00
2.9622e-04 4.3292e-04 0.0000e+00
2.9732e-04 5.7713e-04 0.0000e+00
2.9885e-04 7.2022e-04 0.0000e+00
3.0096e-04 8.6135e-04 0.0000e+00
3.0412e-04 9.9959e-04 0.0000e+00
3.0894e-04 1.1340e-03 0.0000e+00
3.1569e-04 1.2644e-03 0.0000e+00
3.2390e-04 1.3874e-03 0.0000e+00
3.3262e-04 1.5046e-03 0.0000e+00
3.4143e-04 1.6156e-03 0.0000e+00
3.4981e-04 1.7215e-03 0.0000e+00
3.5756e-04 1.8224e-03 0.0000e+00
3.6425e-04 1.9196e-03 0.0000e+00
3.6983e-04 2.0134e-03 0.0000e+00
3.7424e-04 2.1050e-03 0.0000e+00
3.7764e-04 2.1946e-03 0.0000e+00
3.8017e-04 2.2830e-03 0.0000e+00
3.8200e-04 2.3704e-03 0.0000e+00
3.8326e-04 2.4570e-03 0.0000e+00
3.8410e-04 2.5432e-03 0.0000e+00
3.8465e-04 2.6290e-03 0.0000e+00
3.8497e-04 2.7146e-03 0.0000e+00
3.8512e-04 2.8001e-03 0.0000e+00
3.8512e-04 2.8861e-03 0.0000e+00
3.8497e-04 2.9716e-03 0.0000e+00
3.8465e-04 3.0572e-03 0.0000e+00
3.8410e-04 3.1431e-03 0.0000e+00
3.8326e-04 3.2292e-03 0.0000e+00
3.8200e-04 3.3159e-03 0.0000e+00
3.8017e-04 3.4032e-03 0.0000e+00
3.7764e-04 3.4916e-03 0.0000e+00
3.7424e-04 3.5812e-03 0.0000e+00
3.6983e-04 3.6728e-03 0.0000e+00
3.6424e-04 3.7666e-03 0.0000e+00
3.5756e-04 3.8638e-03 0.0000e+00
3.4980e-04 3.9647e-03 0.0000e+00
3.4142e-04 4.0706e-03 0.0000e+00
3.3261e-04 4.1816e-03 0.0000e+00
3.2390e-04 4.2988e-03 0.0000e+00
3.1570e-04 4.4218e-03 0.0000e+00
3.0896e-04 4.5522e-03 0.0000e+00
3.0414e-04 4.6866e-03 0.0000e+00
3.0098e-04 4.8252e-03 0.0000e+00
2.9887e-04 4.9662e-03 0.0000e+00
2.9737e-04 5.1092e-03 0.0000e+00
2.9629e-04 5.2533e-03 0.0000e+00
2.9543e-04 5.3986e-03 0.0000e+00
2.9469e-04 5.5446e-03 0.0000e+00
4.4197e-04 1.4165e-04 0.0000e+00
4.4315e-04 2.8761e-04 0.0000e+00
4.4451e-04 4.3277e-04 0.0000e+00
4.4631e-04 5.7681e-04 0.0000e+00
4.4869e-04 7.1934e-04 0.0000e+00
4.5204e-04 8.6003e-04 0.0000e+00
4.5724e-04 9.9697e-04 0.0000e+00
4.6499e-04 1.1301e-03 0.0000e+00
4.7542e-04 1.2582e-03 0.0000e+00
4.8730e-04 1.3797e-03 0.0000e+00
4.9991e-04 1.4951e-03 0.0000e+00
5.1244e-04 1.6054e-03 0.0000e+00
5.2463e-04 1.7105e-03 0.0000e+00
5.3573e-04 1.8115e-03 0.0000e+00
5.4541e-04 1.9088e-03 0.0000e+00
5.5338e-04 2.0034e-03 0.0000e+00
5.5974e-04 2.0958e-03 0.0000e+00
5.6463e-04 2.1866e-03 0.0000e+00
5.6832e-04 2.2761e-03 0.0000e+00
5.7105e-04 2.3646e-03 0.0000e+00
5.7301e-04 2.4524e-03 0.0000e+00
5.7436e-04 2.5397e-03 0.0000e+00
5.7526e-04 2.6265e-03 0.0000e+00
5.7580e-04 2.7131e-03 0.0000e+00
5.7606e-04 2.7996e-03 0.0000e+00
5.7606e-04 2.8866e-03 0.0000e+00
5.7580e-04 2.9731e-03 0.0000e+00
5.7526e-04 3.0597e-03 0.0000e+00
5.7436e-04 3.1465e-03 0.0000e+00
5.7301e-04 3.2338e-03 0.0000e+00
5.7104e-04 3.3216e-03 0.0000e+00
5.6832e-04 3.4101e-03 0.0000e+00
5.6462e-04 3.4996e-03 0.0000e+00
5.5974e-04 3.5904e-03 0.0000e+00
5.5338e-04 3.6828e-03 0.0000e+00
5.4541e-04 3.7774e-03 0.0000e+00
5.3572e-04 3.8747e-03 0.0000e+00
5.2463e-04 3.9758e-03 0.0000e+00
5.1243e-04 4.0808e-03 0.0000e+00
4.9991e-04 4.1911e-03 0.0000e+00
4.8731e-04 4.3065e-03 0.0000e+00
4.7543e-04 4.4280e-03 0.0000e+00
4.6501e-04 4.5561e-03 0.0000e+00
4.5728e-04 4.6892e-03 0.0000e+00
4.5207e-04 4.8265e-03 0.0000e+00
4.4872e-04 4.9671e-03 0.0000e+00
4.4636e-04 5.1095e-03 0.0000e+00
4.4458e-04 5.2535e-03 0.0000e+00
4.4327e-04 5.3986e-03 0.0000e+00
4.4211e-04 5.5446e-03 0.0000e+00
5.8943e-04 1.4172e-04 0.0000e+00
5.9095e-04 2.8756e-04 0.0000e+00
5.9290e-04 4.3263e-04 0.0000e+00
5.9549e-04 5.7619e-04 0.0000e+00
5.9888e-04 7.1829e-04 0.0000e+00
6.0383e-04 8.5783e-04 0.0000e+00
6.1156e-04 9.9344e-04 0.0000e+00
6.2278e-04 1.1240e-03 0.0000e+00
6.3670e-04 1.2499e-03 0.0000e+00
6.5215e-04 1.3689e-03 0.0000e+00
6.6800e-04 1.4829e-03 0.0000e+00
6.8396e-04 1.5916e-03 0.0000e+00
6.9916e-04 1.6962e-03 0.0000e+00
7.1311e-04 1.7970e-03 0.0000e+00
7.2509e-04 1.8949e-03 0.0000e+00
7.3508e-04 1.9905e-03 0.0000e+00
7.4308e-04 2.0842e-03 0.0000e+00
7.4939e-04 2.1764e-03 0.0000e+00
7.5422e-04 2.2674e-03 0.0000e+00
7.5789e-04 2.3574e-03 0.0000e+00
7.6062e-04 2.4466e-03 0.0000e+00
7.6259e-04 2.5353e-03 0.0000e+00
7.6394e-04 2.6234e-03 0.0000e+00
7.6478e-04 2.7113e-03 0.0000e+00
7.6518e-04 2.7990e-03 0.0000e+00
7.6518e-04 2.8872e-03 0.0000e+00
7.6478e-04 2.9749e-03 0.0000e+00
7.6394e-04 3.0628e-03 0.0000e+00
7.6259e-04 3.1510e-03 0.0000e+00
7.6062e-04 3.2396e-03 0.0000e+00
7.5789e-04 3.3288e-03 0.0000e+00
7.5422e-04 3.4188e-03 0.0000e+00
7.4939e-04 3.5098e-03 0.0000e+00
7.4308e-04 3.6020e-03 0.0000e+00
7.3507e-04 3.6957e-03 0.0000e+00
7.2508e-04 3.7913e-03 0.0000e+00
7.1311e-04 3.8893e-03 0.0000e+00
6.9916e-04 3.9900e-03 0.0000e+00
6.8397e-04 4.0946e-03 0.0000e+00
6.6801e-04 4.2033e-03 0.0000e+00
6.5217e-04 4.3173e-03 0.0000e+00
6.3672e-04 4.4363e-03 0.0000e+00
6.2281e-04 4.5622e-03 0.0000e+00
6.1160e-04 4.6927e-03 0.0000e+00
6.0386e-04 4.8287e-03 0.0000e+00
5.9892e-04 4.9682e-03 0.0000e+00
5.9554e-04 5.1102e-03 0.0000e+00
5.9295e-04 5.2537e-03 0.0000e+00
5.9102e-04 5.3987e-03 0.0000e+00
5.8949e-04 5.5446e-03 0.0000e+00
7.3692e-04 1.4168e-04 0.0000e+00
7.3895e-04 2.8752e-04 0.0000e+00
7.4162e-04 4.3224e-04 0.0000e+00
7.4518e-04 5.7545e-04 0.0000e+00
7.4981e-04 7.1665e-04 0.0000e+00
7.5690e-04 8.5504e-04 0.0000e+00
7.6800e-04 9.8805e-04 0.0000e+00
7.8274e-04 1.1161e-03 0.0000e+00
8.0024e-04 1.2389e-03 0.0000e+00
8.1860e-04 1.3558e-03 0.0000e+00
8.3757e-04 1.4675e-03 0.0000e+00
8.5607e-04 1.5752e-03 0.0000e+00
8.7376e-04 1.6789e-03 0.0000e+00
8.8957e-04 1.7800e-03 0.0000e+00
9.0331e-04 1.8787e-03 0.0000e+00
9.1478e-04 1.9755e-03 0.0000e+00
9.2422e-04 2.0708e-03 0.0000e+00
9.3181e-04 2.1646e-03 0.0000e+00
9.3783e-04 2.2573e-03 0.0000e+00
9.4251e-04 2.3490e-03 0.0000e+00
9.4609e-04 2.4399e-03 0.0000e+00
9.4876e-04 2.5301e-03 0.0000e+00
9.5065e-04 2.6198e-03 0.0000e+00
9.5185e-04 2.7092e-03 0.0000e+00
9.5243e-04 2.7983e-03 0.0000e+00
9.5243e-04 2.8879e-03 0.0000e+00
9.5185e-04 2.9771e-03 0.0000e+00
9.5065e-04 3.0664e-03 0.0000e+00
9.4876e-04 3.1561e-03 0.0000e+00
9.4609e-04 3.2463e-03 0.0000e+00
9.4251e-04 3.3372e-03 0.0000e+00
9.3783e-04 3.4289e-03 0.0000e+00
9.3180e-04 3.5216e-03 0.0000e+00
9.2422e-04 3.6155e-03 0.0000e+00
9.1478e-04 3.7107e-03 0.0000e+00
9.0330e-04 3.8075e-03 0.0000e+00
8.8957e-04 3.9062e-03 0.0000e+00
8.7377e-04 4.0073e-03 0.0000e+00
8.5608e-04 4.1110e-03 0.0000e+00
8.3759e-04 4.2187e-03 0.0000e+00
8.1862e-04 4.3304e-03 0.0000e+00
8.0026e-04 4.4473e-03 0.0000e+00
7.8277e-04 4.5701e-03 0.0000e+00
7.6803e-04 4.6981e-03 0.0000e+00
7.5692e-04 4.8315e-03 0.0000e+00
7.4984e-04 4.9698e-03 0.0000e+00
7.4521e-04 5.1109e-03 0.0000e+00
7.4165e-04 5.2541e-03 0.0000e+00
7.3899e-04 5.3988e-03 0.0000e+00
7.3694e-04 5.5446e-03 0.0000e+00
8.8448e-04 1.4169e-04 0.0000e+00
8.8706e-04 2.8730e-04 0.0000e+00
8.9069e-04 4.3176e-04 0.0000e+00
8.9533e-04 5.7425e-04 0.0000e+00
9.0164e-04 7.1460e-04 0.0000e+00
9.1192e-04 8.5065e-04 0.0000e+00
9.2672e-04 9.8109e-04 0.0000e+00
9.4529e-04 1.1056e-03 0.0000e+00
9.6568e-04 1.2258e-03 0.0000e+00
9.8703e-04 1.3398e-03 0.0000e+00
1.0082e-03 1.4499e-03 0.0000e+00
1.0288e-03 1.5562e-03 0.0000e+00
1.0478e-03 1.6599e-03 0.0000e+00
1.0649e-03 1.7613e-03 0.0000e+00
1.0797e-03 1.8611e-03 0.0000e+00
1.0923e-03 1.9593e-03 0.0000e+00
1.1029e-03 2.0563e-03 0.0000e+00
1.1117e-03 2.1519e-03 0.0000e+00
1.1189e-03 2.2464e-03 0.0000e+00
1.1246e-03 2.3399e-03 0.0000e+00
1.1292e-03 2.4325e-03 0.0000e+00
1.1326e-03 2.5244e-03 0.0000e+00
1.1351e-03 2.6158e-03 0.0000e+00
1.1367e-03 2.7067e-03 0.0000e+00
1.1375e-03 2.7975e-03 0.0000e+00
1.1375e-03 2.8887e-03 0.0000e+00
1.1367e-03 2.9795e-03 0.0000e+00
1.1351e-03 3.0704e-03 0.0000e+00
1.1326e-03 3.1618e-03 0.0000e+00
1.1292e-03 3.2537e-03 0.0000e+00
1.1246e-03 3.3463e-03 0.0000e+00
1.1189e-03 3.4398e-03 0.0000e+00
1.1117e-03 3.5343e-03 0.0000e+00
1.1029e-03 3.6300e-03 0.0000e+00
1.0923e-03 3.7269e-03 0.0000e+00
1.0797e-03 3.8251e-03 0.0000e+00
1.0649e-03 3.9249e-03 0.0000e+00
1.0478e-03 4.0263e-03 0.0000e+00
1.0288e-03 4.1300e-03 0.0000e+00
1.0082e-03 4.2363e-03 0.0000e+00
9.8705e-04 4.3464e-03 0.0000e+00
9.6571e-04 4.4604e-03 0.0000e+00
9.4532e-04 4.5806e-03 0.0000e+00
9.2675e-04 4.7051e-03 0.0000e+00
9.1192e-04 4.8359e-03 0.0000e+00
9.0166e-04 4.9719e-03 0.0000e+00
8.9535e-04 5.1121e-03 0.0000e+00
8.9072e-04 5.2546e-03 0.0000e+00
8.8708e-04 5.3990e-03 0.0000e+00
8.8449e-04 5.5446e-03 0.0000e+00
1.0315e-03 1.4159e-04 0.0000e+00
1.0350e-03 2.8709e-04 0.0000e+00
1.0397e-03 4.3094e-04 0.0000e+00
1.0456e-03 5.7281e-04 0.0000e+00
1.0546e-03 7.1124e-04 0.0000e+00
1.0688e-03 8.4479e-04 0.0000e+00
1.0878e-03 9.7134e-04 0.0000e+00
1.1095e-03 1.0929e-03 0.0000e+00
1.1330e-03 1.2097e-03 0.0000e+00
1.1563e-03 1.3217e-03 0.0000e+00
1.1793e-03 1.4299e-03 0.0000e+00
1.2008e-03 1.5357e-03 0.0000e+00
1.2205e-03 1.6394e-03 0.0000e+00
1.2381e-03 1.7419e-03 0.0000e+00
1.2536e-03 1.8429e-03 0.0000e+00
1.2671e-03 1.9427e-03 0.0000e+00
1.2787e-03 2.0412e-03 0.0000e+00
1.2886e-03 2.1386e-03 0.0000e+00
1.2969e-03 2.2349e-03 0.0000e+00
1.3037e-03 2.3302e-03 0.0000e+00
1.3092e-03 2.4246e-03 0.0000e+00
1.3134e-03 2.5183e-03 0.0000e+00
1.3165e-03 2.6114e-03 0.0000e+00
1.3185e-03 2.7041e-03 0.0000e+00
1.3195e-03 2.7966e-03 0.0000e+00
1.3195e-03 2.8896e-03 0.0000e+00
1.3185e-03 2.9821e-03 0.0000e+00
1.3165e-03 3.0748e-03 0.0000e+00
1.3134e-03 3.1679e-03 0.0000e+00
1.3091e-03 3.2616e-03 0.0000e+00
1.3037e-03 3.3561e-03 0.0000e+00
1.2969e-03 3.4514e-03 0.0000e+00
1.2886e-03 3.5476e-03 0.0000e+00
1.2787e-03 3.6450e-03 0.0000e+00
1.2671e-03 3.7436e-03 0.0000e+00
1.2536e-03 3.8433e-03 0.0000e+00
1.2381e-03 3.9443e-03 0.0000e+00
1.2205e-03 4.0468e-03 0.0000e+00
1.2008e-03 4.1505e-03 0.0000e+00
1.1793e-03 4.2563e-03 0.0000e+00
1.1563e-03 4.3645e-03 0.0000e+00
1.1330e-03 4.4765e-03 0.0000e+00
1.1095e-03 4.5933e-03 0.0000e+00
1.0878e-03 4.7149e-03 0.0000e+00
1.0687e-03 4.8418e-03 0.0000e+00
1.0546e-03 4.9752e-03 0.0000e+00
1.0456e-03 5.1136e-03 0.0000e+00
1.0397e-03 5.2555e-03 0.0000e+00
1.0350e-03 5.3992e-03 0.0000e+00
1.0315e-03 5.5447e-03 0.0000e+00
1.1791e-03 1.4152e-04 0.0000e+00
1.1835e-03 2.8658e-04 0.0000e+00
1.1895e-03 4.3001e-04 0.0000e+00
1.1975e-03 5.7043e-04 0.0000e+00
1.2103e-03 7.0660e-04 0.0000e+00
1.2292e-03 8.3601e-04 0.0000e+00
1.2519e-03 9.5924e-04 0.0000e+00
1.2770e-03 1.0768e-03 0.0000e+00
1.3024e-03 1.1911e-03 0.0000e+00
1.3275e-03 1.3007e-03 0.0000e+00
1.3509e-03 1.4082e-03 0.0000e+00
1.3727e-03 1.5139e-03 0.0000e+00
1.3924e-03 1.6185e-03 0.0000e+00
1.4102e-03 1.7220e-03 0.0000e+00
1.4262e-03 1.8244e-03 0.0000e+00
1.4404e-03 1.9256e-03 0.0000e+00
1.4529e-03 2.0258e-03 0.0000e+00
1.4638e-03 2.1249e-03 0.0000e+00
1.4731e-03 2.2229e-03 0.0000e+00
1.4809e-03 2.3200e-03 0.0000e+00
1.4872e-03 2.4162e-03 0.0000e+00
1.4922e-03 2.5118e-03 0.0000e+00
1.4959e-03 2.6068e-03 0.0000e+00
1.4984e-03 2.7013e-03 0.0000e+00
1.4996e-03 2.7957e-03 0.0000e+00
1.4996e-03 2.8905e-03 0.0000e+00
1.4984e-03 2.9849e-03 0.0000e+00
1.4959e-03 3.0794e-03 0.0000e+00
1.4922e-03 3.1744e-03 0.0000e+00
1.4872e-03 3.2700e-03 0.0000e+00
1.4809e-03 3.3662e-03 0.0000e+00
1.4731e-03 3.4633e-03 0.0000e+00
1.4638e-03 3.5613e-03 0.0000e+00
1.4529e-03 3.6604e-03 0.0000e+00
1.4404e-03 3.7606e-03 0.0000e+00
1.4262e-03 3.8618e-03 0.0000e+00
1.4103e-03 3.9642e-03 0.0000e+00
1.3924e-03 4.0677e-03 0.0000e+00
1.3727e-03 4.1723e-03 0.0000e+00
1.3509e-03 4.2780e-03 0.0000e+00
1.3275e-03 4.3855e-03 0.0000e+00
1.3024e-03 4.4951e-03 0.0000e+00
1.2770e-03 4.6094e-03 0.0000e+00
1.2519e-03 4.7270e-03 0.0000e+00
1.2292e-03 4.8505e-03 0.0000e+00
1.2102e-03 4.9799e-03 0.0000e+00
1.1975e-03 5.1160e-03 0.0000e+00
1.1895e-03 5.2564e-03 0.0000e+00
1.1835e-03 5.3997e-03 0.0000e+00
1.1791e-03 5.5448e-03 0.0000e+00
1.3278e-03 1.4125e-04 0.0000e+00
1.3336e-03 2.8603e-04 0.0000e+00
1.3412e-03 4.2837e-04 0.0000e+00
1.3524e-03 5.6698e-04 0.0000e+00
1.3705e-03 6.9899e-04 0.0000e+00
1.3939e-03 8.2458e-04 0.0000e+00
1.4205e-03 9.4307e-04 0.0000e+00
1.4476e-03 1.0576e-03 0.0000e+00
1.4749e-03 1.1689e-03 0.0000e+00
1.4999e-03 1.2776e-03 0.0000e+00
1.5232e-03 1.3849e-03 0.0000e+00
1.5445e-03 1.4915e-03 0.0000e+00
1.5641e-03 1.5972e-03 0.0000e+00
1.5819e-03 1.7020e-03 0.0000e+00
1.5983e-03 1.8057e-03 0.0000e+00
1.6131e-03 1.9085e-03 0.0000e+00
1.6263e-03 2.0102e-03 0.0000e+00
1.6381e-03 2.1109e-03 0.0000e+00
1.6483e-03 2.2106e-03 0.0000e+00
1.6570e-03 2.3095e-03 0.0000e+00
1.6641e-03 2.4075e-03 0.0000e+00
1.6699e-03 2.5050e-03 0.0000e+00
1.6741e-03 2.6019e-03 0.0000e+00
1.6769e-03 2.6984e-03 0.0000e+00
1.6784e-03 2.7947e-03 0.0000e+00
1.6784e-03 2.8915e-03 0.0000e+00
1.6769e-03 2.9878e-03 0.0000e+00
1.6741e-03 3.0843e-03 0.0000e+00
1.6699e-03 3.1812e-03 0.0000e+00
1.6642e-03 3.2787e-03 0.0000e+00
1.6570e-03 3.3768e-03 0.0000e+00
1.6483e-03 3.4756e-03 0.0000e+00
1.6381e-03 3.5754e-03 0.0000e+00
1.6263e-03 3.6761e-03 0.0000e+00
1.6131e-03 3.7777e-03 0.0000e+00
1.5983e-03 3.8805e-03 0.0000e+00
1.5819e-03 3.9842e-03 0.0000e+00
1.5641e-03 4.0890e-03 0.0000e+00
1.5445e-03 4.1947e-03 0.0000e+00
1.5233e-03 4.3013e-03 0.0000e+00
1.4999e-03 4.4086e-03 0.0000e+00
1.4749e-03 4.5173e-03 0.0000e+00
1.4476e-03 4.6286e-03 0.0000e+00
1.4205e-03 4.7431e-03 0.0000e+00
1.3938e-03 4.8620e-03 0.0000e+00
1.3704e-03 4.9875e-03 0.0000e+00
1.3524e-03 5.1194e-03 0.0000e+00
1.3412e-03 5.2580e-03 0.0000e+00
1.3336e-03 5.4003e-03 0.0000e+00
1.3278e-03 5.5451e-03 0.0000e+00
1.4759e-03 1.4110e-04 0.0000e+00
1.4832e-03 2.8509e-04 0.0000e+00
1.4933e-03 4.2613e-04 0.0000e+00
1.5097e-03 5.6085e-04 0.0000e+00
1.5332e-03 6.8861e-04 0.0000e+00
1.5615e-03 8.0861e-04 0.0000e+00
1.5904e-03 9.2346e-04 0.0000e+00
1.6195e-03 1.0343e-03 0.0000e+00
1.6461e-03 1.1445e-03 0.0000e+00
1.6706e-03 1.2531e-03 0.0000e+00
1.6928e-03 1.3614e-03 0.0000e+00
1.7137e-03 1.4690e-03 0.0000e+00
1.7329e-03 1.5759e-03 0.0000e+00
1.7510e-03 1.6820e-03 0.0000e+00
1.7676e-03 1.7871e-03 0.0000e+00
1.7830e-03 1.8913e-03 0.0000e+00
1.7969e-03 1.9945e-03 0.0000e+00
1.8093e-03 2.0967e-03 0.0000e+00