# vtk DataFile Version 3.0
VTK Example
ASCII
DATASET UNSTRUCTURED_GRID
POINTS 972 float 
0 -3.96615e-05 0.0
0.00251042 -4.03892e-05 0.0
0.00251042 0.00704835 0.0
0 0.0070482 0.0
0.000146714 -4.00046e-05 0.0
0.000294037 -4.00685e-05 0.0
0.000441184 -4.00622e-05 0.0
0.000588191 -4.00725e-05 0.0
0.000735294 -4.00762e-05 0.0
0.000882395 -4.00837e-05 0.0
0.001029 -4.00891e-05 0.0
0.001176 -4.00922e-05 0.0
0.001324 -4.00821e-05 0.0
0.001471 -4.00597e-05 0.0
0.001618 -4.00609e-05 0.0
0.001765 -4.00937e-05 0.0
0.00191201 -4.01097e-05 0.0
0.002059 -4.01591e-05 0.0
0.00220602 -4.01756e-05 0.0
0.00235484 -4.00931e-05 0.0
0.00252525 9.41267e-05 0.0
0.00253043 0.000233738 0.0
0.0025355 0.000375669 0.0
0.00253974 0.000516926 0.0
0.0025439 0.000658297 0.0
0.00254788 0.000799265 0.0
0.00255184 0.000939565 0.0
0.00255576 0.00107992 0.0
0.00255974 0.00122098 0.0
0.00256372 0.00136079 0.0
0.00256771 0.00150036 0.0
0.00257168 0.00163967 0.0
0.00257558 0.00177876 0.0
0.00257938 0.00191762 0.0
0.00258305 0.00205627 0.0
0.00258654 0.00219473 0.0
0.00258981 0.00233302 0.0
0.00259284 0.00247113 0.0
0.00259557 0.0026091 0.0
0.00259798 0.00274693 0.0
0.00260003 0.00288466 0.0
0.00260171 0.00302228 0.0
0.00260298 0.00315983 0.0
0.00260384 0.00329733 0.0
0.00260427 0.00343479 0.0
0.00260427 0.00357318 0.0
0.00260384 0.00371064 0.0
0.00260298 0.00384814 0.0
0.00260171 0.00398569 0.0
0.00260003 0.00412331 0.0
0.00259798 0.00426103 0.0
0.00259557 0.00439887 0.0
0.00259284 0.00453684 0.0
0.00258982 0.00467495 0.0
0.00258655 0.00481323 0.0
0.00258306 0.00495169 0.0
0.00257939 0.00509035 0.0
0.00257559 0.00522921 0.0
0.00257168 0.0053683 0.0
0.00256772 0.00550761 0.0
0.00256372 0.00564717 0.0
0.00255975 0.00578698 0.0
0.00255577 0.00592805 0.0
0.00255184 0.0060684 0.0
0.00254788 0.00620908 0.0
0.00254389 0.00634996 0.0
0.00253974 0.00649123 0.0
0.0025355 0.00663249 0.0
0.00253043 0.00677432 0.0
0.00252525 0.00691393 0.0
0.00235484 0.00704806 0.0
0.00220602 0.00704814 0.0
0.002059 0.00704812 0.0
0.00191201 0.00704807 0.0
0.001765 0.00704806 0.0
0.001618 0.00704802 0.0
0.001471 0.00704802 0.0
0.001324 0.00704805 0.0
0.001176 0.00704805 0.0
0.001029 0.00704805 0.0
0.000882395 0.00704805 0.0
0.000735295 0.00704804 0.0
0.000588191 0.00704803 0.0
0.000441188 0.00704802 0.0
0.000294085 0.00704802 0.0
0.000147065 0.007048 0.0
0 0.00690112 0.0
0 0.0067543 0.0
0 0.00660773 0.0
0 0.00646147 0.0
0 0.00631573 0.0
0 0.00617088 0.0
0 0.006027 0.0
0 0.00588419 0.0
0 0.00574129 0.0
0 0.00560034 0.0
0 0.00546037 0.0
0 0.00532151 0.0
0 0.00518366 0.0
0 0.00504678 0.0
0 0.0049107 0.0
0 0.00477528 0.0
0 0.00464038 0.0
0 0.0045059 0.0
0 0.00437174 0.0
0 0.00423786 0.0
0 0.0041042 0.0
0 0.00397073 0.0
0 0.0038374 0.0
0 0.00370417 0.0
0 0.00357101 0.0
0 0.00343697 0.0
0 0.0033038 0.0
0 0.00317058 0.0
0 0.00303725 0.0
0 0.00290377 0.0
0 0.00277011 0.0
0 0.00263623 0.0
0 0.00250208 0.0
0 0.00236759 0.0
0 0.00223269 0.0
0 0.00209728 0.0
0 0.00196119 0.0
0 0.00182431 0.0
0 0.00168646 0.0
0 0.0015476 0.0
0 0.00140763 0.0
0 0.00126667 0.0
0 0.00112377 0.0
0 0.000980961 0.0
0 0.000837474 0.0
0 0.000692522 0.0
0 0.000546673 0.0
0 0.000400376 0.0
0 0.000253604 0.0
0 0.000106332 0.0
0.000146964 0.000106849 0.0
0.000147212 0.000253625 0.0
0.00014735 0.00040033 0.0
0.000147564 0.000546611 0.0
0.000147937 0.000692369 0.0
0.000148448 0.000837268 0.0
0.000148987 0.000980574 0.0
0.000149469 0.00112334 0.0
0.000149933 0.00126612 0.0
0.000150429 0.00140709 0.0
0.000151001 0.00154706 0.0
0.000151588 0.001686 0.0
0.000152136 0.00182385 0.0
0.000152618 0.00196077 0.0
0.000153018 0.00209689 0.0
0.000153336 0.00223236 0.0
0.000153591 0.00236732 0.0
0.000153795 0.00250186 0.0
0.000153962 0.00263606 0.0
0.000154101 0.00276998 0.0
0.000154216 0.00290367 0.0
0.000154309 0.00303718 0.0
0.00015438 0.00317053 0.0
0.000154429 0.00330378 0.0
0.000154453 0.00343696 0.0
0.000154453 0.00357102 0.0
0.000154429 0.0037042 0.0
0.00015438 0.00383745 0.0
0.000154309 0.0039708 0.0
0.000154216 0.0041043 0.0
0.000154101 0.00423799 0.0
0.000153963 0.00437192 0.0
0.000153795 0.00450612 0.0
0.000153591 0.00464066 0.0
0.000153337 0.00477561 0.0
0.000153018 0.00491108 0.0
0.000152618 0.0050472 0.0
0.000152136 0.00518412 0.0
0.000151588 0.00532197 0.0
0.000151001 0.00546091 0.0
0.00015043 0.00560088 0.0
0.000149935 0.00574185 0.0
0.000149471 0.00588462 0.0
0.000148988 0.00602738 0.0
0.000148446 0.00617108 0.0
0.000147938 0.00631588 0.0
0.000147576 0.00646152 0.0
0.000147375 0.00660777 0.0
0.00014726 0.00675433 0.0
0.000147146 0.00690109 0.0
0.000294171 0.000106919 0.0
0.000294381 0.000253659 0.0
0.000294644 0.000400296 0.0
0.000295102 0.000546436 0.0
0.000295888 0.000692035 0.0
0.000296924 0.000836664 0.0
0.000297955 0.000979873 0.0
0.000298895 0.0011225 0.0
0.000299793 0.00126528 0.0
0.000300787 0.00140617 0.0
0.000301889 0.00154612 0.0
0.000303052 0.00168501 0.0
0.000304137 0.00182291 0.0
0.000305082 0.0019599 0.0
0.000305862 0.00209612 0.0
0.000306497 0.0022317 0.0
0.000307007 0.00236677 0.0
0.000307424 0.00250141 0.0
0.000307767 0.0026357 0.0
0.000308053 0.0027697 0.0
0.00030829 0.00290346 0.0
0.000308481 0.00303701 0.0
0.000308626 0.00317042 0.0
0.000308725 0.00330371 0.0
0.000308775 0.00343693 0.0
0.000308775 0.00357104 0.0
0.000308725 0.00370427 0.0
0.000308626 0.00383756 0.0
0.000308481 0.00397096 0.0
0.00030829 0.00410452 0.0
0.000308054 0.00423827 0.0
0.000307768 0.00437227 0.0
0.000307425 0.00450656 0.0
0.000307008 0.0046412 0.0
0.000306497 0.00477627 0.0
0.000305863 0.00491185 0.0
0.000305082 0.00504808 0.0
0.000304138 0.00518506 0.0
0.000303053 0.00532296 0.0
0.000301891 0.00546185 0.0
0.00030079 0.00560179 0.0
0.000299796 0.00574268 0.0
0.000298899 0.00588546 0.0
0.000297958 0.00602808 0.0
0.000296924 0.00617168 0.0
0.000295895 0.0063162 0.0
0.000295121 0.00646169 0.0
0.000294676 0.00660782 0.0
0.000294426 0.00675435 0.0
0.000294247 0.00690109 0.0
0.000441397 0.000106939 0.0
0.00044168 0.000253669 0.0
0.000442114 0.00040022 0.0
0.000442905 0.000546181 0.0
0.000444163 0.000691425 0.0
0.000445654 0.000835811 0.0
0.000447115 0.000978773 0.0
0.000448442 0.00112137 0.0
0.000449815 0.00126404 0.0
0.000451312 0.00140485 0.0
0.000452946 0.00154467 0.0
0.000454616 0.00168353 0.0
0.000456186 0.00182145 0.0
0.000457551 0.00195856 0.0
0.000458699 0.00209492 0.0
0.000459643 0.00223068 0.0
0.000460419 0.00236591 0.0
0.000461059 0.0025007 0.0
0.000461592 0.00263513 0.0
0.000462037 0.00276924 0.0
0.000462405 0.0029031 0.0
0.000462701 0.00303675 0.0
0.000462925 0.00317023 0.0
0.000463077 0.0033036 0.0
0.000463153 0.0034369 0.0
0.000463153 0.00357108 0.0
0.000463077 0.00370437 0.0
0.000462926 0.00383774 0.0
0.000462701 0.00397123 0.0
0.000462406 0.00410487 0.0
0.000462037 0.00423873 0.0
0.000461593 0.00437285 0.0
0.00046106 0.00450727 0.0
0.00046042 0.00464206 0.0
0.000459644 0.00477729 0.0
0.0004587 0.00491305 0.0
0.000457553 0.00504941 0.0
0.000456187 0.00518651 0.0
0.000454618 0.00532444 0.0
0.000452949 0.0054633 0.0
0.000451317 0.00560311 0.0
0.00044982 0.00574392 0.0
0.000448448 0.00588659 0.0
0.00044712 0.00602918 0.0
0.000445658 0.00617253 0.0
0.000444175 0.00631681 0.0
0.000442925 0.00646195 0.0
0.000442137 0.00660791 0.0
0.000441712 0.00675436 0.0
0.00044143 0.00690111 0.0
0.000588507 0.000106942 0.0
0.0005889 0.000253642 0.0
0.000589599 0.000400088 0.0
0.000590857 0.000545744 0.0
0.000592592 0.00069066 0.0
0.000594474 0.000834667 0.0
0.000596235 0.000977511 0.0
0.000597976 0.00111994 0.0
0.000599831 0.0012625 0.0
0.000601856 0.00140312 0.0
0.000603971 0.00154282 0.0
0.000606084 0.0016816 0.0
0.000608053 0.00181959 0.0
0.000609796 0.00195681 0.0
0.000611281 0.00209336 0.0
0.000612532 0.00222932 0.0
0.000613577 0.00236476 0.0
0.000614456 0.00249974 0.0
0.000615193 0.00263434 0.0
0.000615811 0.00276861 0.0
0.000616321 0.0029026 0.0
0.000616731 0.00303637 0.0
0.00061704 0.00316997 0.0
0.000617249 0.00330345 0.0
0.000617354 0.00343685 0.0
0.000617354 0.00357113 0.0
0.000617249 0.00370453 0.0
0.000617041 0.003838 0.0
0.000616732 0.0039716 0.0
0.000616322 0.00410537 0.0
0.000615812 0.00423937 0.0
0.000615194 0.00437364 0.0
0.000614457 0.00450823 0.0
0.000613579 0.00464322 0.0
0.000612534 0.00477865 0.0
0.000611282 0.00491461 0.0
0.000609798 0.00505116 0.0
0.000608055 0.00518838 0.0
0.000606088 0.00532636 0.0
0.000603975 0.00546515 0.0
0.000601861 0.00560485 0.0
0.000599837 0.00574546 0.0
0.000597983 0.00588802 0.0
0.000596244 0.00603044 0.0
0.000594482 0.00617367 0.0
0.000592604 0.00631758 0.0
0.000590871 0.0064624 0.0
0.000589614 0.00660805 0.0
0.000588919 0.00675441 0.0
0.000588519 0.00690112 0.0
0.000735707 0.000106927 0.0
0.000736277 0.000253585 0.0
0.000737372 0.000399819 0.0
0.000739182 0.000545162 0.0
0.000741392 0.000689648 0.0
0.000743515 0.000833457 0.0
0.000745585 0.000976061 0.0
0.00074774 0.00111833 0.0
0.000750125 0.00126063 0.0
0.000752629 0.00140106 0.0
0.00075518 0.00154059 0.0
0.000757643 0.00167935 0.0
0.000759947 0.00181738 0.0
0.000762004 0.00195475 0.0
0.000763804 0.00209149 0.0
0.000765348 0.00222767 0.0
0.00076667 0.00236332 0.0
0.000767795 0.00249853 0.0
0.000768751 0.00263333 0.0
0.000769555 0.00276779 0.0
0.00077022 0.00290195 0.0
0.000770753 0.00303588 0.0
0.000771154 0.00316963 0.0
0.000771423 0.00330324 0.0
0.000771559 0.00343678 0.0
0.000771559 0.0035712 0.0
0.000771424 0.00370473 0.0
0.000771155 0.00383835 0.0
0.000770754 0.00397209 0.0
0.000770222 0.00410602 0.0
0.000769556 0.00424019 0.0
0.000768753 0.00437464 0.0
0.000767797 0.00450944 0.0
0.000766672 0.00464465 0.0
0.00076535 0.00478031 0.0
0.000763806 0.00491648 0.0
0.000762007 0.00505322 0.0
0.00075995 0.00519059 0.0
0.000757648 0.00532861 0.0
0.000755185 0.00546737 0.0
0.000752636 0.0056069 0.0
0.000750132 0.00574733 0.0
0.000747749 0.00588962 0.0
0.000745596 0.00603189 0.0
0.000743523 0.00617488 0.0
0.000741401 0.0063186 0.0
0.000739191 0.00646299 0.0
0.000737381 0.00660833 0.0
0.000736286 0.00675447 0.0
0.000735713 0.00690113 0.0
0.000882921 0.000106915 0.0
0.000883763 0.000253462 0.0
0.000885402 0.000399442 0.0
[...]
POINT_DATA 972
VECTORS Position float
0.0000e+00 -3.9661e-05 0.0000e+00
2.5104e-03 -4.0389e-05 0.0000e+00
2.5104e-03 7.0484e-03 0.0000e+00
0.0000e+00 7.0482e-03 0.0000e+00
1.4671e-04 -4.0005e-05 0.0000e+00
2.9404e-04 -4.0068e-05 0.0000e+00
4.4118e-04 -4.0062e-05 0.0000e+00
5.8819e-04 -4.0073e-05 0.0000e+00
7.3529e-04 -4.0076e-05 0.0000e+00
8.8240e-04 -4.0084e-05 0.0000e+00
1.0290e-03 -4.0089e-05 0.0000e+00
1.1760e-03 -4.0092e-05 0.0000e+00
1.3240e-03 -4.0082e-05 0.0000e+00
1.4710e-03 -4.0060e-05 0.0000e+00
1.6180e-03 -4.0061e-05 0.0000e+00
1.7650e-03 -4.0094e-05 0.0000e+00
1.9120e-03 -4.0110e-05 0.0000e+00
2.0590e-03 -4.0159e-05 0.0000e+00
2.2060e-03 -4.0176e-05 0.0000e+00
2.3548e-03 -4.0093e-05 0.0000e+00
2.5253e-03 9.4127e-05 0.0000e+00
2.5304e-03 2.3374e-04 0.0000e+00
2.5355e-03 3.7567e-04 0.0000e+00
2.5397e-03 5.1693e-04 0.0000e+00
2.5439e-03 6.5830e-04 0.0000e+00
2.5479e-03 7.9926e-04 0.0000e+00
2.5518e-03 9.3957e-04 0.0000e+00
2.5558e-03 1.0799e-03 0.0000e+00
2.5597e-03 1.2210e-03 0.0000e+00
2.5637e-03 1.3608e-03 0.0000e+00
2.5677e-03 1.5004e-03 0.0000e+00
2.5717e-03 1.6397e-03 0.0000e+00
2.5756e-03 1.7788e-03 0.0000e+00
2.5794e-03 1.9176e-03 0.0000e+00
2.5830e-03 2.0563e-03 0.0000e+00
2.5865e-03 2.1947e-03 0.0000e+00
2.5898e-03 2.3330e-03 0.0000e+00
2.5928e-03 2.4711e-03 0.0000e+00
2.5956e-03 2.6091e-03 0.0000e+00
2.5980e-03 2.7469e-03 0.0000e+00
2.6000e-03 2.8847e-03 0.0000e+00
2.6017e-03 3.0223e-03 0.0000e+00
2.6030e-03 3.1598e-03 0.0000e+00
2.6038e-03 3.2973e-03 0.0000e+00
2.6043e-03 3.4348e-03 0.0000e+00
2.6043e-03 3.5732e-03 0.0000e+00
2.6038e-03 3.7106e-03 0.0000e+00
2.6030e-03 3.8481e-03 0.0000e+00
2.6017e-03 3.9857e-03 0.0000e+00
2.6000e-03 4.1233e-03 0.0000e+00
2.5980e-03 4.2610e-03 0.0000e+00
2.5956e-03 4.3989e-03 0.0000e+00
2.5928e-03 4.5368e-03 0.0000e+00
2.5898e-03 4.6750e-03 0.0000e+00
2.5865e-03 4.8132e-03 0.0000e+00
2.5831e-03 4.9517e-03 0.0000e+00
2.5794e-03 5.0904e-03 0.0000e+00
2.5756e-03 5.2292e-03 0.0000e+00
2.5717e-03 5.3683e-03 0.0000e+00
2.5677e-03 5.5076e-03 0.0000e+00
2.5637e-03 5.6472e-03 0.0000e+00
2.5597e-03 5.7870e-03 0.0000e+00
2.5558e-03 5.9280e-03 0.0000e+00
2.5518e-03 6.0684e-03 0.0000e+00
2.5479e-03 6.2091e-03 0.0000e+00
2.5439e-03 6.3500e-03 0.0000e+00
2.5397e-03 6.4912e-03 0.0000e+00
2.5355e-03 6.6325e-03 0.0000e+00
2.5304e-03 6.7743e-03 0.0000e+00
2.5253e-03 6.9139e-03 0.0000e+00
2.3548e-03 7.0481e-03 0.0000e+00
2.2060e-03 7.0481e-03 0.0000e+00
2.0590e-03 7.0481e-03 0.0000e+00
1.9120e-03 7.0481e-03 0.0000e+00
1.7650e-03 7.0481e-03 0.0000e+00
1.6180e-03 7.0480e-03 0.0000e+00
1.4710e-03 7.0480e-03 0.0000e+00
1.3240e-03 7.0480e-03 0.0000e+00
1.1760e-03 7.0481e-03 0.0000e+00
1.0290e-03 7.0481e-03 0.0000e+00
8.8240e-04 7.0480e-03 0.0000e+00
7.3529e-04 7.0480e-03 0.0000e+00
5.8819e-04 7.0480e-03 0.0000e+00
4.4119e-04 7.0480e-03 0.0000e+00
2.9408e-04 7.0480e-03 0.0000e+00
1.4706e-04 7.0480e-03 0.0000e+00
0.0000e+00 6.9011e-03 0.0000e+00
0.0000e+00 6.7543e-03 0.0000e+00
0.0000e+00 6.6077e-03 0.0000e+00
0.0000e+00 6.4615e-03 0.0000e+00
0.0000e+00 6.3157e-03 0.0000e+00
0.0000e+00 6.1709e-03 0.0000e+00
0.0000e+00 6.0270e-03 0.0000e+00
0.0000e+00 5.8842e-03 0.0000e+00
0.0000e+00 5.7413e-03 0.0000e+00
0.0000e+00 5.6003e-03 0.0000e+00
0.0000e+00 5.4604e-03 0.0000e+00
0.0000e+00 5.3215e-03 0.0000e+00
0.0000e+00 5.1837e-03 0.0000e+00
0.0000e+00 5.0468e-03 0.0000e+00
0.0000e+00 4.9107e-03 0.0000e+00
0.0000e+00 4.7753e-03 0.0000e+00
0.0000e+00 4.6404e-03 0.0000e+00
0.0000e+00 4.5059e-03 0.0000e+00
0.0000e+00 4.3717e-03 0.0000e+00
0.0000e+00 4.2379e-03 0.0000e+00
0.0000e+00 4.1042e-03 0.0000e+00
0.0000e+00 3.9707e-03 0.0000e+00
0.0000e+00 3.8374e-03 0.0000e+00
0.0000e+00 3.7042e-03 0.0000e+00
0.0000e+00 3.5710e-03 0.0000e+00
0.0000e+00 3.4370e-03 0.0000e+00
0.0000e+00 3.3038e-03 0.0000e+00
0.0000e+00 3.1706e-03 0.0000e+00
0.0000e+00 3.0372e-03 0.0000e+00
0.0000e+00 2.9038e-03 0.0000e+00
0.0000e+00 2.7701e-03 0.0000e+00
0.0000e+00 2.6362e-03 0.0000e+00
0.0000e+00 2.5021e-03 0.0000e+00
0.0000e+00 2.3676e-03 0.0000e+00
0.0000e+00 2.2327e-03 0.0000e+00
0.0000e+00 2.0973e-03 0.0000e+00
0.0000e+00 1.9612e-03 0.0000e+00
0.0000e+00 1.8243e-03 0.0000e+00
0.0000e+00 1.6865e-03 0.0000e+00
0.0000e+00 1.5476e-03 0.0000e+00
0.0000e+00 1.4076e-03 0.0000e+00
0.0000e+00 1.2667e-03 0.0000e+00
0.0000e+00 1.1238e-03 0.0000e+00
0.0000e+00 9.8096e-04 0.0000e+00
0.0000e+00 8.3747e-04 0.0000e+00
0.0000e+00 6.9252e-04 0.0000e+00
0.0000e+00 5.4667e-04 0.0000e+00
0.0000e+00 4.0038e-04 0.0000e+00
0.0000e+00 2.5360e-04 0.0000e+00
0.0000e+00 1.0633e-04 0.0000e+00
1.4696e-04 1.0685e-04 0.0000e+00
1.4721e-04 2.5363e-04 0.0000e+00
1.4735e-04 4.0033e-04 0.0000e+00
1.4756e-04 5.4661e-04 0.0000e+00
1.4794e-04 6.9237e-04 0.0000e+00
1.4845e-04 8.3727e-04 0.0000e+00
1.4899e-04 9.8057e-04 0.0000e+00
1.4947e-04 1.1233e-03 0.0000e+00
1.4993e-04 1.2661e-03 0.0000e+00
1.5043e-04 1.4071e-03 0.0000e+00
1.5100e-04 1.5471e-03 0.0000e+00
1.5159e-04 1.6860e-03 0.0000e+00
1.5214e-04 1.8239e-03 0.0000e+00
1.5262e-04 1.9608e-03 0.0000e+00
1.5302e-04 2.0969e-03 0.0000e+00
1.5334e-04 2.2324e-03 0.0000e+00
1.5359e-04 2.3673e-03 0.0000e+00
1.5379e-04 2.5019e-03 0.0000e+00
1.5396e-04 2.6361e-03 0.0000e+00
1.5410e-04 2.7700e-03 0.0000e+00
1.5422e-04 2.9037e-03 0.0000e+00
1.5431e-04 3.0372e-03 0.0000e+00
1.5438e-04 3.1705e-03 0.0000e+00
1.5443e-04 3.3038e-03 0.0000e+00
1.5445e-04 3.4370e-03 0.0000e+00
1.5445e-04 3.5710e-03 0.0000e+00
1.5443e-04 3.7042e-03 0.0000e+00
1.5438e-04 3.8374e-03 0.0000e+00
1.5431e-04 3.9708e-03 0.0000e+00
1.5422e-04 4.1043e-03 0.0000e+00
1.5410e-04 4.2380e-03 0.0000e+00
1.5396e-04 4.3719e-03 0.0000e+00
1.5380e-04 4.5061e-03 0.0000e+00
1.5359e-04 4.6407e-03 0.0000e+00
1.5334e-04 4.7756e-03 0.0000e+00
1.5302e-04 4.9111e-03 0.0000e+00
1.5262e-04 5.0472e-03 0.0000e+00
1.5214e-04 5.1841e-03 0.0000e+00
1.5159e-04 5.3220e-03 0.0000e+00
1.5100e-04 5.4609e-03 0.0000e+00
1.5043e-04 5.6009e-03 0.0000e+00
1.4994e-04 5.7418e-03 0.0000e+00
1.4947e-04 5.8846e-03 0.0000e+00
1.4899e-04 6.0274e-03 0.0000e+00
1.4845e-04 6.1711e-03 0.0000e+00
1.4794e-04 6.3159e-03 0.0000e+00
1.4758e-04 6.4615e-03 0.0000e+00
1.4737e-04 6.6078e-03 0.0000e+00
1.4726e-04 6.7543e-03 0.0000e+00
1.4715e-04 6.9011e-03 0.0000e+00
2.9417e-04 1.0692e-04 0.0000e+00
2.9438e-04 2.5366e-04 0.0000e+00
2.9464e-04 4.0030e-04 0.0000e+00
2.9510e-04 5.4644e-04 0.0000e+00
2.9589e-04 6.9204e-04 0.0000e+00
2.9692e-04 8.3666e-04 0.0000e+00
2.9795e-04 9.7987e-04 0.0000e+00
2.9889e-04 1.1225e-03 0.0000e+00
2.9979e-04 1.2653e-03 0.0000e+00
3.0079e-04 1.4062e-03 0.0000e+00
3.0189e-04 1.5461e-03 0.0000e+00
3.0305e-04 1.6850e-03 0.0000e+00
3.0414e-04 1.8229e-03 0.0000e+00
3.0508e-04 1.9599e-03 0.0000e+00
3.0586e-04 2.0961e-03 0.0000e+00
3.0650e-04 2.2317e-03 0.0000e+00
3.0701e-04 2.3668e-03 0.0000e+00
3.0742e-04 2.5014e-03 0.0000e+00
3.0777e-04 2.6357e-03 0.0000e+00
3.0805e-04 2.7697e-03 0.0000e+00
3.0829e-04 2.9035e-03 0.0000e+00
3.0848e-04 3.0370e-03 0.0000e+00
3.0863e-04 3.1704e-03 0.0000e+00
3.0872e-04 3.3037e-03 0.0000e+00
3.0877e-04 3.4369e-03 0.0000e+00
3.0877e-04 3.5710e-03 0.0000e+00
3.0873e-04 3.7043e-03 0.0000e+00
3.0863e-04 3.8376e-03 0.0000e+00
3.0848e-04 3.9710e-03 0.0000e+00
3.0829e-04 4.1045e-03 0.0000e+00
3.0805e-04 4.2383e-03 0.0000e+00
3.0777e-04 4.3723e-03 0.0000e+00
3.0742e-04 4.5066e-03 0.0000e+00
3.0701e-04 4.6412e-03 0.0000e+00
3.0650e-04 4.7763e-03 0.0000e+00
3.0586e-04 4.9119e-03 0.0000e+00
3.0508e-04 5.0481e-03 0.0000e+00
3.0414e-04 5.1851e-03 0.0000e+00
3.0305e-04 5.3230e-03 0.0000e+00
3.0189e-04 5.4618e-03 0.0000e+00
3.0079e-04 5.6018e-03 0.0000e+00
2.9980e-04 5.7427e-03 0.0000e+00
2.9890e-04 5.8855e-03 0.0000e+00
2.9796e-04 6.0281e-03 0.0000e+00
2.9692e-04 6.1717e-03 0.0000e+00
2.9589e-04 6.3162e-03 0.0000e+00
2.9512e-04 6.4617e-03 0.0000e+00
2.9468e-04 6.6078e-03 0.0000e+00
2.9443e-04 6.7543e-03 0.0000e+00
2.9425e-04 6.9011e-03 0.0000e+00
4.4140e-04 1.0694e-04 0.0000e+00
4.4168e-04 2.5367e-04 0.0000e+00
4.4211e-04 4.0022e-04 0.0000e+00
4.4290e-04 5.4618e-04 0.0000e+00
4.4416e-04 6.9142e-04 0.0000e+00
4.4565e-04 8.3581e-04 0.0000e+00
4.4711e-04 9.7877e-04 0.0000e+00
4.4844e-04 1.1214e-03 0.0000e+00
4.4982e-04 1.2640e-03 0.0000e+00
4.5131e-04 1.4049e-03 0.0000e+00
4.5295e-04 1.5447e-03 0.0000e+00
4.5462e-04 1.6835e-03 0.0000e+00
4.5619e-04 1.8215e-03 0.0000e+00
4.5755e-04 1.9586e-03 0.0000e+00
4.5870e-04 2.0949e-03 0.0000e+00
4.5964e-04 2.2307e-03 0.0000e+00
4.6042e-04 2.3659e-03 0.0000e+00
4.6106e-04 2.5007e-03 0.0000e+00
4.6159e-04 2.6351e-03 0.0000e+00
4.6204e-04 2.7692e-03 0.0000e+00
4.6240e-04 2.9031e-03 0.0000e+00
4.6270e-04 3.0367e-03 0.0000e+00
4.6293e-04 3.1702e-03 0.0000e+00
4.6308e-04 3.3036e-03 0.0000e+00
4.6315e-04 3.4369e-03 0.0000e+00
4.6315e-04 3.5711e-03 0.0000e+00
4.6308e-04 3.7044e-03 0.0000e+00
4.6293e-04 3.8377e-03 0.0000e+00
4.6270e-04 3.9712e-03 0.0000e+00
4.6241e-04 4.1049e-03 0.0000e+00
4.6204e-04 4.2387e-03 0.0000e+00
4.6159e-04 4.3728e-03 0.0000e+00
4.6106e-04 4.5073e-03 0.0000e+00
4.6042e-04 4.6421e-03 0.0000e+00
4.5964e-04 4.7773e-03 0.0000e+00
4.5870e-04 4.9130e-03 0.0000e+00
4.5755e-04 5.0494e-03 0.0000e+00
4.5619e-04 5.1865e-03 0.0000e+00
4.5462e-04 5.3244e-03 0.0000e+00
4.5295e-04 5.4633e-03 0.0000e+00
4.5132e-04 5.6031e-03 0.0000e+00
4.4982e-04 5.7439e-03 0.0000e+00
4.4845e-04 5.8866e-03 0.0000e+00
4.4712e-04 6.0292e-03 0.0000e+00
4.4566e-04 6.1725e-03 0.0000e+00
4.4417e-04 6.3168e-03 0.0000e+00
4.4292e-04 6.4619e-03 0.0000e+00
4.4214e-04 6.6079e-03 0.0000e+00
4.4171e-04 6.7544e-03 0.0000e+00
4.4143e-04 6.9011e-03 0.0000e+00
5.8851e-04 1.0694e-04 0.0000e+00
5.8890e-04 2.5364e-04 0.0000e+00
5.8960e-04 4.0009e-04 0.0000e+00
5.9086e-04 5.4574e-04 0.0000e+00
5.9259e-04 6.9066e-04 0.0000e+00
5.9447e-04 8.3467e-04 0.0000e+00
5.9624e-04 9.7751e-04 0.0000e+00
5.9798e-04 1.1199e-03 0.0000e+00
5.9983e-04 1.2625e-03 0.0000e+00
6.0186e-04 1.4031e-03 0.0000e+00
6.0397e-04 1.5428e-03 0.0000e+00
6.0608e-04 1.6816e-03 0.0000e+00
6.0805e-04 1.8196e-03 0.0000e+00
6.0980e-04 1.9568e-03 0.0000e+00
6.1128e-04 2.0934e-03 0.0000e+00
6.1253e-04 2.2293e-03 0.0000e+00
6.1358e-04 2.3648e-03 0.0000e+00
6.1446e-04 2.4997e-03 0.0000e+00
6.1519e-04 2.6343e-03 0.0000e+00
6.1581e-04 2.7686e-03 0.0000e+00
6.1632e-04 2.9026e-03 0.0000e+00
6.1673e-04 3.0364e-03 0.0000e+00
6.1704e-04 3.1700e-03 0.0000e+00
6.1725e-04 3.3034e-03 0.0000e+00
6.1735e-04 3.4368e-03 0.0000e+00
6.1735e-04 3.5711e-03 0.0000e+00
6.1725e-04 3.7045e-03 0.0000e+00
6.1704e-04 3.8380e-03 0.0000e+00
6.1673e-04 3.9716e-03 0.0000e+00
6.1632e-04 4.1054e-03 0.0000e+00
6.1581e-04 4.2394e-03 0.0000e+00
6.1519e-04 4.3736e-03 0.0000e+00
6.1446e-04 4.5082e-03 0.0000e+00
6.1358e-04 4.6432e-03 0.0000e+00
6.1253e-04 4.7787e-03 0.0000e+00
6.1128e-04 4.9146e-03 0.0000e+00
6.0980e-04 5.0512e-03 0.0000e+00
6.0806e-04 5.1884e-03 0.0000e+00
6.0609e-04 5.3264e-03 0.0000e+00
6.0397e-04 5.4651e-03 0.0000e+00
6.0186e-04 5.6048e-03 0.0000e+00
5.9984e-04 5.7455e-03 0.0000e+00
5.9798e-04 5.8880e-03 0.0000e+00
5.9624e-04 6.0304e-03 0.0000e+00
5.9448e-04 6.1737e-03 0.0000e+00
5.9260e-04 6.3176e-03 0.0000e+00
5.9087e-04 6.4624e-03 0.0000e+00
5.8961e-04 6.6081e-03 0.0000e+00
5.8892e-04 6.7544e-03 0.0000e+00
5.8852e-04 6.9011e-03 0.0000e+00
7.3571e-04 1.0693e-04 0.0000e+00
7.3628e-04 2.5358e-04 0.0000e+00
7.3737e-04 3.9982e-04 0.0000e+00
7.3918e-04 5.4516e-04 0.0000e+00
7.4139e-04 6.8965e-04 0.0000e+00
7.4352e-04 8.3346e-04 0.0000e+00
7.4559e-04 9.7606e-04 0.0000e+00
7.4774e-04 1.1183e-03 0.0000e+00
7.5012e-04 1.2606e-03 0.0000e+00
7.5263e-04 1.4011e-03 0.0000e+00
7.5518e-04 1.5406e-03 0.0000e+00
7.5764e-04 1.6794e-03 0.0000e+00
7.5995e-04 1.8174e-03 0.0000e+00
7.6200e-04 1.9547e-03 0.0000e+00
7.6380e-04 2.0915e-03 0.0000e+00
7.6535e-04 2.2277e-03 0.0000e+00
7.6667e-04 2.3633e-03 0.0000e+00
7.6779e-04 2.4985e-03 0.0000e+00
7.6875e-04 2.6333e-03 0.0000e+00
7.6955e-04 2.7678e-03 0.0000e+00
7.7022e-04 2.9020e-03 0.0000e+00
7.7075e-04 3.0359e-03 0.0000e+00
7.7115e-04 3.1696e-03 0.0000e+00
7.7142e-04 3.3032e-03 0.0000e+00
7.7156e-04 3.4368e-03 0.0000e+00
7.7156e-04 3.5712e-03 0.0000e+00
7.7142e-04 3.7047e-03 0.0000e+00
7.7115e-04 3.8383e-03 0.0000e+00
7.7075e-04 3.9721e-03 0.0000e+00
7.7022e-04 4.1060e-03 0.0000e+00
7.6956e-04 4.2402e-03 0.0000e+00
7.6875e-04 4.3746e-03 0.0000e+00
7.6780e-04 4.5094e-03 0.0000e+00
7.6667e-04 4.6446e-03 0.0000e+00
7.6535e-04 4.7803e-03 0.0000e+00
7.6381e-04 4.9165e-03 0.0000e+00
7.6201e-04 5.0532e-03 0.0000e+00
7.5995e-04 5.1906e-03 0.0000e+00
7.5765e-04 5.3286e-03 0.0000e+00
7.5519e-04 5.4674e-03 0.0000e+00
7.5264e-04 5.6069e-03 0.0000e+00
7.5013e-04 5.7473e-03 0.0000e+00
7.4775e-04 5.8896e-03 0.0000e+00
7.4560e-04 6.0319e-03 0.0000e+00
7.4352e-04 6.1749e-03 0.0000e+00
7.4140e-04 6.3186e-03 0.0000e+00
7.3919e-04 6.4630e-03 0.0000e+00
7.3738e-04 6.6083e-03 0.0000e+00
7.3629e-04 6.7545e-03 0.0000e+00
7.3571e-04 6.9011e-03 0.0000e+00
8.8292e-04 1.0692e-04 0.0000e+00
8.8376e-04 2.5346e-04 0.0000e+00
8.8540e-04 3.9944e-04 0.0000e+00
8.8782e-04 5.4433e-04 0.0000e+00
8.9034e-04 6.8856e-04 0.0000e+00
8.9270e-04 8.3211e-04 0.0000e+00
8.9509e-04 9.7454e-04 0.0000e+00
8.9775e-04 1.1165e-03 0.0000e+00
9.0061e-04 1.2585e-03 0.0000e+00
9.0355e-04 1.3987e-03 0.0000e+00
9.0643e-04 1.5381e-03 0.0000e+00
9.0919e-04 1.6768e-03 0.0000e+00
9.1175e-04 1.8149e-03 0.0000e+00
9.1408e-04 1.9524e-03 0.0000e+00
9.1616e-04 2.0894e-03 0.0000e+00
9.1799e-04 2.2258e-03 0.0000e+00
9.1958e-04 2.3617e-03 0.0000e+00
9.2096e-04 2.4971e-03 0.0000e+00
9.2214e-04 2.6321e-03 0.0000e+00
9.2314e-04 2.7668e-03 0.0000e+00
9.2397e-04 2.9012e-03 0.0000e+00
9.2463e-04 3.0353e-03 0.0000e+00
9.2513e-04 3.1692e-03 0.0000e+00
9.2547e-04 3.3030e-03 0.0000e+00
9.2564e-04 3.4367e-03 0.0000e+00
9.2564e-04 3.5713e-03 0.0000e+00
9.2547e-04 3.7050e-03 0.0000e+00
9.2513e-04 3.8388e-03 0.0000e+00
9.2463e-04 3.9727e-03 0.0000e+00
9.2397e-04 4.1068e-03 0.0000e+00
9.2314e-04 4.2412e-03 0.0000e+00
9.2214e-04 4.3759e-03 0.0000e+00
9.2096e-04 4.5109e-03 0.0000e+00
9.1958e-04 4.6463e-03 0.0000e+00
9.1799e-04 4.7822e-03 0.0000e+00
9.1616e-04 4.9186e-03 0.0000e+00
9.1409e-04 5.0555e-03 0.0000e+00
9.1175e-04 5.1930e-03 0.0000e+00
9.0920e-04 5.3311e-03 0.0000e+00
9.0644e-04 5.4699e-03 0.0000e+00
9.0356e-04 5.6093e-03 0.0000e+00
9.0062e-04 5.7495e-03 0.0000e+00
8.9775e-04 5.8915e-03 0.0000e+00
8.9510e-04 6.0334e-03 0.0000e+00
8.9270e-04 6.1762e-03 0.0000e+00
8.9034e-04 6.3197e-03 0.0000e+00
8.8783e-04 6.4638e-03 0.0000e+00
8.8541e-04 6.6087e-03 0.0000e+00
8.8377e-04 6.7546e-03 0.0000e+00
8.8292e-04 6.9011e-03 0.0000e+00
1.0297e-03 1.0687e-04 0.0000e+00
1.0309e-03 2.5329e-04 0.0000e+00
1.0333e-03 3.9887e-04 0.0000e+00
1.0362e-03 5.4343e-04 0.0000e+00
1.0389e-03 6.8733e-04 0.0000e+00
1.0415e-03 8.3073e-04 0.0000e+00
1.0444e-03 9.7281e-04 0.0000e+00
1.0475e-03 1.1144e-03 0.0000e+00
1.0508e-03 1.2561e-03 0.0000e+00
1.0541e-03 1.3961e-03 0.0000e+00
1.0572e-03 1.5354e-03 0.0000e+00
1.0602e-03 1.6741e-03 0.0000e+00
1.0630e-03 1.8123e-03 0.0000e+00
1.0655e-03 1.9499e-03 0.0000e+00
1.0678e-03 2.0870e-03 0.0000e+00
1.0699e-03 2.2237e-03 0.0000e+00
1.0718e-03 2.3598e-03 0.0000e+00
1.0734e-03 2.4955e-03 0.0000e+00
1.0748e-03 2.6307e-03 0.0000e+00
1.0760e-03 2.7656e-03 0.0000e+00
1.0770e-03 2.9002e-03 0.0000e+00
1.0778e-03 3.0345e-03 0.0000e+00
1.0784e-03 3.1687e-03 0.0000e+00
1.0788e-03 3.3027e-03 0.0000e+00
1.0790e-03 3.4366e-03 0.0000e+00
1.0790e-03 3.5714e-03 0.0000e+00
1.0788e-03 3.7053e-03 0.0000e+00
1.0784e-03 3.8393e-03 0.0000e+00
1.0778e-03 3.9734e-03 0.0000e+00
1.0770e-03 4.1078e-03 0.0000e+00
1.0760e-03 4.2424e-03 0.0000e+00
1.0748e-03 4.3773e-03 0.0000e+00
1.0734e-03 4.5125e-03 0.0000e+00
1.0718e-03 4.6482e-03 0.0000e+00
1.0699e-03 4.7843e-03 0.0000e+00
1.0678e-03 4.9209e-03 0.0000e+00
1.0655e-03 5.0580e-03 0.0000e+00
1.0630e-03 5.1957e-03 0.0000e+00
1.0602e-03 5.3339e-03 0.0000e+00
1.0572e-03 5.4726e-03 0.0000e+00
1.0541e-03 5.6119e-03 0.0000e+00
1.0508e-03 5.7519e-03 0.0000e+00
1.0475e-03 5.8935e-03 0.0000e+00
1.0444e-03 6.0351e-03 0.0000e+00
1.0415e-03 6.1776e-03 0.0000e+00
1.0389e-03 6.3209e-03 0.0000e+00
1.0362e-03 6.4647e-03 0.0000e+00
1.0333e-03 6.6093e-03 0.0000e+00
1.0309e-03 6.7548e-03 0.0000e+00
1.0297e-03 6.9012e-03 0.0000e+00
1.1769e-03 1.0683e-04 0.0000e+00
1.1787e-03 2.5297e-04 0.0000e+00
1.1819e-03 3.9820e-04 0.0000e+00
1.1851e-03 5.4236e-04 0.0000e+00
1.1880e-03 6.8613e-04 0.0000e+00
1.1910e-03 8.2915e-04 0.0000e+00
1.1943e-03 9.7085e-04 0.0000e+00
1.1980e-03 1.1120e-03 0.0000e+00
1.2016e-03 1.2534e-03 0.0000e+00
1.2051e-03 1.3932e-03 0.0000e+00
1.2084e-03 1.5325e-03 0.0000e+00
1.2115e-03 1.6712e-03 0.0000e+00
1.2145e-03 1.8095e-03 0.0000e+00
1.2172e-03 1.9473e-03 0.0000e+00
1.2198e-03 2.0846e-03 0.0000e+00
1.2221e-03 2.2214e-03 0.0000e+00
1.2242e-03 2.3577e-03 0.0000e+00
1.2261e-03 2.4936e-03 0.0000e+00
1.2277e-03 2.6291e-03 0.0000e+00
1.2291e-03 2.7643e-03 0.0000e+00
1.2303e-03 2.8991e-03 0.0000e+00
1.2312e-03 3.0337e-03 0.0000e+00
1.2320e-03 3.1681e-03 0.0000e+00
1.2324e-03 3.3023e-03 0.0000e+00
1.2327e-03 3.4365e-03 0.0000e+00
1.2327e-03 3.5715e-03 0.0000e+00
1.2324e-03 3.7057e-03 0.0000e+00
1.2320e-03 3.8399e-03 0.0000e+00
1.2312e-03 3.9743e-03 0.0000e+00
1.2303e-03 4.1089e-03 0.0000e+00
1.2291e-03 4.2437e-03 0.0000e+00
1.2277e-03 4.3788e-03 0.0000e+00
1.2261e-03 4.5143e-03 0.0000e+00
1.2242e-03 4.6503e-03 0.0000e+00
1.2221e-03 4.7866e-03 0.0000e+00
1.2198e-03 4.9234e-03 0.0000e+00
1.2173e-03 5.0607e-03 0.0000e+00
1.2145e-03 5.1985e-03 0.0000e+00
1.2115e-03 5.3367e-03 0.0000e+00
1.2084e-03 5.4755e-03 0.0000e+00
1.2051e-03 5.6148e-03 0.0000e+00
1.2016e-03 5.7546e-03 0.0000e+00
1.1980e-03 5.8959e-03 0.0000e+00
1.1944e-03 6.0371e-03 0.0000e+00
1.1910e-03 6.1792e-03 0.0000e+00
1.1880e-03 6.3221e-03 0.0000e+00
1.1851e-03 6.4658e-03 0.0000e+00
1.1819e-03 6.6100e-03 0.0000e+00
1.1787e-03 6.7551e-03 0.0000e+00
1.1769e-03 6.9012e-03 0.0000e+00
1.3252e-03 1.0674e-04 0.0000e+00
1.3279e-03 2.5260e-04 0.0000e+00
1.3318e-03 3.9732e-04 0.0000e+00
1.3351e-03 5.4130e-04 0.0000e+00
1.3383e-03 6.8473e-04 0.0000e+00
1.3419e-03 8.2734e-04 0.0000e+00
1.3458e-03 9.6849e-04 0.0000e+00
1.3497e-03 1.1093e-03 0.0000e+00
1.3535e-03 1.2504e-03 0.0000e+00
1.3571e-03 1.3901e-03 0.0000e+00
1.3606e-03 1.5294e-03 0.0000e+00
1.3638e-03 1.6682e-03 0.0000e+00
1.3670e-03 1.8066e-03 0.0000e+00
1.3699e-03 1.9445e-03 0.0000e+00
1.3727e-03 2.0819e-03 0.0000e+00
1.3752e-03 2.2189e-03 0.0000e+00
1.3775e-03 2.3555e-03 0.0000e+00
1.3796e-03 2.4916e-03 0.0000e+00
1.3815e-03 2.6274e-03 0.0000e+00
1.3831e-03 2.7628e-03 0.0000e+00
1.3844e-03 2.8979e-03 0.0000e+00
1.3855e-03 3.0328e-03 0.0000e+00
1.3863e-03 3.1674e-03 0.0000e+00
1.3868e-03 3.3019e-03 0.0000e+00
1.3871e-03 3.4363e-03 0.0000e+00
1.3871e-03 3.5716e-03 0.0000e+00
1.3868e-03 3.7061e-03 0.0000e+00
1.3863e-03 3.8406e-03 0.0000e+00
1.3855e-03 3.9752e-03 0.0000e+00
1.3844e-03 4.1101e-03 0.0000e+00
1.3831e-03 4.2452e-03 0.0000e+00
1.3815e-03 4.3806e-03 0.0000e+00
1.3796e-03 4.5163e-03 0.0000e+00
1.3775e-03 4.6525e-03 0.0000e+00
1.3752e-03 4.7890e-03 0.0000e+00
1.3727e-03 4.9260e-03 0.0000e+00
1.3699e-03 5.0635e-03 0.0000e+00
1.3670e-03 5.2014e-03 0.0000e+00
1.3638e-03 5.3398e-03 0.0000e+00
1.3606e-03 5.4786e-03 0.0000e+00
1.3571e-03 5.6178e-03 0.0000e+00
1.3535e-03 5.7575e-03 0.0000e+00
1.3497e-03 5.8987e-03 0.0000e+00
1.3458e-03 6.0395e-03 0.0000e+00
1.3418e-03 6.1810e-03 0.0000e+00
1.3383e-03 6.3235e-03 0.0000e+00
1.3351e-03 6.4669e-03 0.0000e+00
1.3318e-03 6.6108e-03 0.0000e+00
1.3279e-03 6.7555e-03 0.0000e+00
1.3252e-03 6.9013e-03 0.0000e+00
1.4727e-03 1.0664e-04 0.0000e+00
1.4765e-03 2.5202e-04 0.0000e+00
1.4808e-03 3.9648e-04 0.0000e+00
1.4843e-03 5.4011e-04 0.0000e+00
1.4880e-03 6.8312e-04 0.0000e+00
1.4922e-03 8.2508e-04 0.0000e+00
1.4964e-03 9.6576e-04 0.0000e+00
1.5006e-03 1.1062e-03 0.0000e+00
1.5045e-03 1.2472e-03 0.0000e+00
1.5081e-03 1.3869e-03 0.0000e+00
1.5117e-03 1.5262e-03 0.0000e+00
1.5150e-03 1.6651e-03 0.0000e+00
1.5183e-03 1.8035e-03 0.0000e+00
1.5214e-03 1.9416e-03 0.0000e+00
1.5244e-03 2.0792e-03 0.0000e+00
1.5271e-03 2.2164e-03 0.0000e+00
1.5296e-03 2.3531e-03 0.0000e+00
1.5319e-03 2.4895e-03 0.0000e+00