# vtk DataFile Version 3.0
VTK Example
ASCII
DATASET UNSTRUCTURED_GRID
POINTS 972 float 
0 -8.69686e-06 0.0
0.00253555 -1.097e-05 0.0
0.00253555 0.00609225 0.0
0 0.00609157 0.0
0.000145788 -9.45883e-06 0.0
0.000293857 -9.65537e-06 0.0
0.000441139 -9.66402e-06 0.0
0.000588161 -9.66114e-06 0.0
0.00073528 -9.63543e-06 0.0
0.000882377 -9.6321e-06 0.0
0.00102899 -9.62188e-06 0.0
0.00117599 -9.64588e-06 0.0
0.001324 -9.64484e-06 0.0
0.00147099 -9.69175e-06 0.0
0.00161802 -9.75303e-06 0.0
0.001765 -9.82186e-06 0.0
0.00191213 -9.90392e-06 0.0
0.00205895 -9.93901e-06 0.0
0.00220631 -9.98858e-06 0.0
0.00235376 -9.78424e-06 0.0
0.00260534 7.33319e-05 0.0
0.00261908 0.000184934 0.0
0.00263962 0.000310842 0.0
0.00265613 0.000434412 0.0
0.00267292 0.000559353 0.0
0.00268866 0.000683109 0.0
0.0027042 0.000806522 0.0
0.00271923 0.000929528 0.0
0.00273407 0.00105314 0.0
0.00274836 0.00117537 0.0
0.00276225 0.00129731 0.0
0.00277562 0.00141883 0.0
0.00278844 0.00154009 0.0
0.00280062 0.00166104 0.0
0.00281211 0.00178175 0.0
0.00282283 0.00190222 0.0
0.00283273 0.0020225 0.0
0.00284172 0.00214261 0.0
0.00284976 0.00226258 0.0
0.00285677 0.00238242 0.0
0.00286271 0.00250216 0.0
0.00286752 0.00262182 0.0
0.00287116 0.00274141 0.0
0.00287361 0.00286096 0.0
0.00287484 0.00298047 0.0
0.00287484 0.0031008 0.0
0.00287361 0.00322032 0.0
0.00287116 0.00333986 0.0
0.00286752 0.00345945 0.0
0.00286271 0.00357911 0.0
0.00285678 0.00369885 0.0
0.00284976 0.00381869 0.0
0.00284173 0.00393866 0.0
0.00283273 0.00405877 0.0
0.00282283 0.00417906 0.0
0.00281211 0.00429953 0.0
0.00280062 0.00442024 0.0
0.00278844 0.00454118 0.0
0.00277562 0.00466244 0.0
0.00276225 0.00478397 0.0
0.00274835 0.00490591 0.0
0.00273407 0.00502813 0.0
0.00271922 0.00515175 0.0
0.0027042 0.00527476 0.0
0.00268862 0.0053985 0.0
0.00267288 0.00552218 0.0
0.00265611 0.00564703 0.0
0.0026396 0.0057706 0.0
0.00261907 0.00589643 0.0
0.00260532 0.00600802 0.0
0.00235376 0.00609107 0.0
0.00220631 0.00609127 0.0
0.00205895 0.00609122 0.0
0.00191213 0.00609119 0.0
0.001765 0.0060911 0.0
0.00161802 0.00609103 0.0
0.00147099 0.00609097 0.0
0.001324 0.00609093 0.0
0.00117598 0.00609093 0.0
0.00102899 0.0060909 0.0
0.000882377 0.00609091 0.0
0.000735281 0.00609091 0.0
0.000588162 0.00609093 0.0
0.000441156 0.00609094 0.0
0.000294037 0.00609098 0.0
0.000146966 0.00609091 0.0
0 0.00594431 0.0
0 0.00579793 0.0
0 0.00565232 0.0
0 0.00550748 0.0
0 0.00536359 0.0
0 0.00522122 0.0
0 0.0050807 0.0
0 0.0049431 0.0
0 0.00480824 0.0
0 0.00467926 0.0
0 0.00455539 0.0
0 0.00443676 0.0
0 0.0043224 0.0
0 0.00421177 0.0
0 0.00410395 0.0
0 0.00399843 0.0
0 0.0038946 0.0
0 0.00379212 0.0
0 0.0036906 0.0
0 0.00358981 0.0
0 0.00348949 0.0
0 0.00338952 0.0
0 0.00328979 0.0
0 0.00319021 0.0
0 0.00309071 0.0
0 0.00299057 0.0
0 0.00289107 0.0
0 0.00279149 0.0
0 0.00269175 0.0
0 0.00259179 0.0
0 0.00249147 0.0
0 0.00239067 0.0
0 0.00228916 0.0
0 0.00218668 0.0
0 0.00208285 0.0
0 0.00197733 0.0
0 0.00186952 0.0
0 0.00175889 0.0
0 0.00164453 0.0
0 0.0015259 0.0
0 0.00140203 0.0
0 0.00127306 0.0
0 0.00113818 0.0
0 0.00100056 0.0
0 0.000860411 0.0
0 0.000717926 0.0
0 0.000573915 0.0
0 0.000429008 0.0
0 0.000283099 0.0
0 0.000135191 0.0
0.000146602 0.000136841 0.0
0.000147528 0.000283077 0.0
0.000147936 0.000428856 0.0
0.000148379 0.000573765 0.0
0.000148996 0.000717696 0.0
0.000149881 0.000860244 0.0
0.00015113 0.00100011 0.0
0.000152943 0.00113757 0.0
0.000155507 0.0012718 0.0
0.000158631 0.00140044 0.0
0.000162009 0.00152375 0.0
0.000165202 0.00164235 0.0
0.000168043 0.00175657 0.0
0.000170437 0.00186738 0.0
0.000172414 0.00197527 0.0
0.000173975 0.00208099 0.0
0.000175197 0.00218494 0.0
0.000176132 0.00228764 0.0
0.000176834 0.00238936 0.0
0.000177329 0.00249038 0.0
0.000177679 0.0025909 0.0
0.000177923 0.00269107 0.0
0.000178089 0.002791 0.0
0.000178191 0.00289078 0.0
0.00017824 0.00299047 0.0
0.00017824 0.00309081 0.0
0.000178191 0.00319049 0.0
0.000178089 0.00329027 0.0
0.000177923 0.0033902 0.0
0.000177679 0.00349038 0.0
0.000177329 0.00359089 0.0
0.000176833 0.00369192 0.0
0.000176131 0.00379363 0.0
0.000175196 0.00389633 0.0
0.000173974 0.00400029 0.0
0.000172413 0.00410601 0.0
0.000170435 0.0042139 0.0
0.000168041 0.00432472 0.0
0.000165199 0.00443894 0.0
0.000162007 0.00455754 0.0
0.00015863 0.00468085 0.0
0.000155511 0.00480949 0.0
0.000152952 0.0049437 0.0
0.000151141 0.00508116 0.0
0.000149888 0.00522138 0.0
0.000149005 0.00536382 0.0
0.000148399 0.00550762 0.0
0.000147976 0.00565248 0.0
0.000147648 0.00579805 0.0
0.000147269 0.00594424 0.0
0.000294342 0.000137047 0.0
0.00029508 0.000283144 0.0
0.000295837 0.000428804 0.0
0.000296729 0.000573531 0.0
0.000298003 0.000717299 0.0
0.000299837 0.000859406 0.0
0.000302474 0.000998917 0.0
0.000306323 0.00113545 0.0
0.000311537 0.00126886 0.0
0.000317742 0.00139633 0.0
0.000324181 0.0015191 0.0
0.000330334 0.00163719 0.0
0.000335775 0.00175148 0.0
0.000340444 0.0018624 0.0
0.000344297 0.00197071 0.0
0.000347409 0.00207682 0.0
0.000349823 0.0021813 0.0
0.000351671 0.00228449 0.0
0.000353065 0.00238673 0.0
0.000354096 0.00248824 0.0
0.000354827 0.00258921 0.0
0.000355338 0.00268979 0.0
0.000355684 0.00279011 0.0
0.000355902 0.00289025 0.0
0.000356006 0.00299029 0.0
0.000356006 0.00309098 0.0
0.000355901 0.00319103 0.0
0.000355684 0.00329117 0.0
0.000355337 0.00339149 0.0
0.000354826 0.00349207 0.0
0.000354096 0.00359304 0.0
0.000353064 0.00369455 0.0
0.00035167 0.00379679 0.0
0.000349822 0.00389997 0.0
0.000347407 0.00400446 0.0
0.000344295 0.00411057 0.0
0.000340441 0.00421889 0.0
0.000335771 0.0043298 0.0
0.00033033 0.0044441 0.0
0.000324179 0.00456219 0.0
0.000317743 0.00468495 0.0
0.000311544 0.00481242 0.0
0.000306338 0.00494582 0.0
0.000302494 0.00508234 0.0
0.000299851 0.00522222 0.0
0.000298023 0.00536421 0.0
0.000296764 0.00550786 0.0
0.000295892 0.00565256 0.0
0.000295212 0.00579809 0.0
0.000294608 0.00594422 0.0
0.00044188 0.000137092 0.0
0.000442841 0.000283196 0.0
0.000443922 0.000428696 0.0
0.000445381 0.000573232 0.0
0.00044741 0.000716527 0.0
0.000450303 0.000858174 0.0
0.0004546 0.000996654 0.0
0.00046072 0.00113209 0.0
0.000468736 0.00126379 0.0
0.000477728 0.00139006 0.0
0.00048694 0.00151167 0.0
0.000495584 0.00162939 0.0
0.000503357 0.00174351 0.0
0.000510009 0.00185477 0.0
0.000515595 0.00196354 0.0
0.000520126 0.00207039 0.0
0.000523723 0.00217561 0.0
0.000526492 0.0022796 0.0
0.000528606 0.0023826 0.0
0.000530204 0.00248486 0.0
0.000531385 0.00258654 0.0
0.000532223 0.00268779 0.0
0.000532796 0.00278871 0.0
0.000533153 0.00288942 0.0
0.000533326 0.00299002 0.0
0.000533326 0.00309126 0.0
0.000533153 0.00319185 0.0
0.000532796 0.00329257 0.0
0.000532223 0.00339349 0.0
0.000531384 0.00349473 0.0
0.000530203 0.00359641 0.0
0.000528606 0.00369868 0.0
0.00052649 0.00380168 0.0
0.000523721 0.00390567 0.0
0.000520123 0.00401089 0.0
0.000515592 0.00411774 0.0
0.000510005 0.00422651 0.0
0.000503353 0.00433777 0.0
0.000495581 0.00445189 0.0
0.00048694 0.00456961 0.0
0.000477732 0.00469121 0.0
0.000468747 0.00481748 0.0
0.000460739 0.00494917 0.0
0.000454626 0.0050846 0.0
0.000450323 0.00522345 0.0
0.000447439 0.00536499 0.0
0.000445419 0.00550817 0.0
0.000443977 0.0056527 0.0
0.000442935 0.0057981 0.0
0.000441993 0.00594424 0.0
0.000589263 0.000137144 0.0
0.000590514 0.000283178 0.0
0.000592076 0.000428566 0.0
0.000594224 0.000572693 0.0
0.000597126 0.000715542 0.0
0.000601365 0.000856224 0.0
0.000607648 0.000993556 0.0
0.000616418 0.00112703 0.0
0.000627095 0.00125701 0.0
0.000638665 0.00138148 0.0
0.000650084 0.00150213 0.0
0.000660839 0.00161914 0.0
0.000670439 0.00173328 0.0
0.000678799 0.00184481 0.0
0.000685829 0.00195427 0.0
0.000691649 0.00206193 0.0
0.000696338 0.00216815 0.0
0.000700054 0.00227313 0.0
0.000702929 0.00237715 0.0
0.000705142 0.00248035 0.0
0.000706819 0.00258295 0.0
0.000708053 0.00268506 0.0
0.00070891 0.00278681 0.0
0.000709451 0.0028883 0.0
0.000709711 0.00298965 0.0
0.000709711 0.00309163 0.0
0.000709451 0.00319298 0.0
0.00070891 0.00329447 0.0
0.000708053 0.00339622 0.0
0.000706819 0.00349833 0.0
0.000705141 0.00360092 0.0
0.000702928 0.00370413 0.0
0.000700052 0.00380814 0.0
0.000696336 0.00391313 0.0
0.000691647 0.00401935 0.0
0.000685826 0.00412701 0.0
0.000678796 0.00423647 0.0
0.000670436 0.00434799 0.0
0.000660839 0.00446214 0.0
0.000650087 0.00457915 0.0
0.000638673 0.00469979 0.0
0.000627109 0.00482425 0.0
0.000616439 0.00495423 0.0
0.000607677 0.0050877 0.0
0.000601386 0.0052254 0.0
0.000597157 0.00536598 0.0
0.000594259 0.00550873 0.0
0.000592119 0.00565286 0.0
0.000590573 0.00579816 0.0
0.000589308 0.00594422 0.0
0.000736708 0.000137128 0.0
0.000738358 0.000283145 0.0
0.000740552 0.000428256 0.0
0.000743537 0.000572017 0.0
0.000747538 0.000714059 0.0
0.000753505 0.000853706 0.0
0.000762352 0.000989035 0.0
0.000773816 0.00112051 0.0
0.000787101 0.00124817 0.0
0.000800695 0.00137115 0.0
0.000813979 0.00149052 0.0
0.000826227 0.00160711 0.0
0.000837292 0.00172113 0.0
0.00084691 0.00183313 0.0
0.000855158 0.00194327 0.0
0.000862051 0.00205191 0.0
0.000867751 0.00215919 0.0
0.000872365 0.00226535 0.0
0.000876054 0.00237051 0.0
0.000878938 0.00247486 0.0
0.000881165 0.00257853 0.0
0.000882837 0.00268168 0.0
0.000884029 0.00278442 0.0
0.000884792 0.00288688 0.0
0.000885165 0.00298917 0.0
0.000885165 0.0030921 0.0
0.000884792 0.00319439 0.0
0.000884029 0.00329685 0.0
0.000882837 0.0033996 0.0
0.000881164 0.00350274 0.0
0.000878938 0.00360642 0.0
0.000876053 0.00371076 0.0
0.000872364 0.00381592 0.0
0.000867749 0.00392208 0.0
0.000862049 0.00402936 0.0
0.000855156 0.004138 0.0
0.000846908 0.00424815 0.0
0.000837292 0.00436014 0.0
0.00082623 0.00447416 0.0
0.000813986 0.00459075 0.0
0.000800707 0.00471011 0.0
0.000787119 0.00483309 0.0
0.000773838 0.00496075 0.0
0.000762381 0.00509222 0.0
0.000753519 0.00522792 0.0
0.000747564 0.00536748 0.0
0.000743566 0.00550943 0.0
0.000740581 0.00565319 0.0
0.000738388 0.00579821 0.0
0.000736726 0.00594424 0.0
0.000884183 0.000137148 0.0
0.000886313 0.000282988 0.0
[...]
POINT_DATA 972
VECTORS Position float
0.0000e+00 -8.6969e-06 0.0000e+00
2.5356e-03 -1.0970e-05 0.0000e+00
2.5355e-03 6.0923e-03 0.0000e+00
0.0000e+00 6.0916e-03 0.0000e+00
1.4579e-04 -9.4588e-06 0.0000e+00
2.9386e-04 -9.6554e-06 0.0000e+00
4.4114e-04 -9.6640e-06 0.0000e+00
5.8816e-04 -9.6611e-06 0.0000e+00
7.3528e-04 -9.6354e-06 0.0000e+00
8.8238e-04 -9.6321e-06 0.0000e+00
1.0290e-03 -9.6219e-06 0.0000e+00
1.1760e-03 -9.6459e-06 0.0000e+00
1.3240e-03 -9.6448e-06 0.0000e+00
1.4710e-03 -9.6917e-06 0.0000e+00
1.6180e-03 -9.7530e-06 0.0000e+00
1.7650e-03 -9.8219e-06 0.0000e+00
1.9121e-03 -9.9039e-06 0.0000e+00
2.0590e-03 -9.9390e-06 0.0000e+00
2.2063e-03 -9.9886e-06 0.0000e+00
2.3538e-03 -9.7842e-06 0.0000e+00
2.6053e-03 7.3332e-05 0.0000e+00
2.6191e-03 1.8493e-04 0.0000e+00
2.6396e-03 3.1084e-04 0.0000e+00
2.6561e-03 4.3441e-04 0.0000e+00
2.6729e-03 5.5935e-04 0.0000e+00
2.6887e-03 6.8311e-04 0.0000e+00
2.7042e-03 8.0652e-04 0.0000e+00
2.7192e-03 9.2953e-04 0.0000e+00
2.7341e-03 1.0531e-03 0.0000e+00
2.7484e-03 1.1754e-03 0.0000e+00
2.7623e-03 1.2973e-03 0.0000e+00
2.7756e-03 1.4188e-03 0.0000e+00
2.7884e-03 1.5401e-03 0.0000e+00
2.8006e-03 1.6610e-03 0.0000e+00
2.8121e-03 1.7817e-03 0.0000e+00
2.8228e-03 1.9022e-03 0.0000e+00
2.8327e-03 2.0225e-03 0.0000e+00
2.8417e-03 2.1426e-03 0.0000e+00
2.8498e-03 2.2626e-03 0.0000e+00
2.8568e-03 2.3824e-03 0.0000e+00
2.8627e-03 2.5022e-03 0.0000e+00
2.8675e-03 2.6218e-03 0.0000e+00
2.8712e-03 2.7414e-03 0.0000e+00
2.8736e-03 2.8610e-03 0.0000e+00
2.8748e-03 2.9805e-03 0.0000e+00
2.8748e-03 3.1008e-03 0.0000e+00
2.8736e-03 3.2203e-03 0.0000e+00
2.8712e-03 3.3399e-03 0.0000e+00
2.8675e-03 3.4595e-03 0.0000e+00
2.8627e-03 3.5791e-03 0.0000e+00
2.8568e-03 3.6989e-03 0.0000e+00
2.8498e-03 3.8187e-03 0.0000e+00
2.8417e-03 3.9387e-03 0.0000e+00
2.8327e-03 4.0588e-03 0.0000e+00
2.8228e-03 4.1791e-03 0.0000e+00
2.8121e-03 4.2995e-03 0.0000e+00
2.8006e-03 4.4202e-03 0.0000e+00
2.7884e-03 4.5412e-03 0.0000e+00
2.7756e-03 4.6624e-03 0.0000e+00
2.7623e-03 4.7840e-03 0.0000e+00
2.7484e-03 4.9059e-03 0.0000e+00
2.7341e-03 5.0281e-03 0.0000e+00
2.7192e-03 5.1517e-03 0.0000e+00
2.7042e-03 5.2748e-03 0.0000e+00
2.6886e-03 5.3985e-03 0.0000e+00
2.6729e-03 5.5222e-03 0.0000e+00
2.6561e-03 5.6470e-03 0.0000e+00
2.6396e-03 5.7706e-03 0.0000e+00
2.6191e-03 5.8964e-03 0.0000e+00
2.6053e-03 6.0080e-03 0.0000e+00
2.3538e-03 6.0911e-03 0.0000e+00
2.2063e-03 6.0913e-03 0.0000e+00
2.0590e-03 6.0912e-03 0.0000e+00
1.9121e-03 6.0912e-03 0.0000e+00
1.7650e-03 6.0911e-03 0.0000e+00
1.6180e-03 6.0910e-03 0.0000e+00
1.4710e-03 6.0910e-03 0.0000e+00
1.3240e-03 6.0909e-03 0.0000e+00
1.1760e-03 6.0909e-03 0.0000e+00
1.0290e-03 6.0909e-03 0.0000e+00
8.8238e-04 6.0909e-03 0.0000e+00
7.3528e-04 6.0909e-03 0.0000e+00
5.8816e-04 6.0909e-03 0.0000e+00
4.4116e-04 6.0909e-03 0.0000e+00
2.9404e-04 6.0910e-03 0.0000e+00
1.4697e-04 6.0909e-03 0.0000e+00
0.0000e+00 5.9443e-03 0.0000e+00
0.0000e+00 5.7979e-03 0.0000e+00
0.0000e+00 5.6523e-03 0.0000e+00
0.0000e+00 5.5075e-03 0.0000e+00
0.0000e+00 5.3636e-03 0.0000e+00
0.0000e+00 5.2212e-03 0.0000e+00
0.0000e+00 5.0807e-03 0.0000e+00
0.0000e+00 4.9431e-03 0.0000e+00
0.0000e+00 4.8082e-03 0.0000e+00
0.0000e+00 4.6793e-03 0.0000e+00
0.0000e+00 4.5554e-03 0.0000e+00
0.0000e+00 4.4368e-03 0.0000e+00
0.0000e+00 4.3224e-03 0.0000e+00
0.0000e+00 4.2118e-03 0.0000e+00
0.0000e+00 4.1039e-03 0.0000e+00
0.0000e+00 3.9984e-03 0.0000e+00
0.0000e+00 3.8946e-03 0.0000e+00
0.0000e+00 3.7921e-03 0.0000e+00
0.0000e+00 3.6906e-03 0.0000e+00
0.0000e+00 3.5898e-03 0.0000e+00
0.0000e+00 3.4895e-03 0.0000e+00
0.0000e+00 3.3895e-03 0.0000e+00
0.0000e+00 3.2898e-03 0.0000e+00
0.0000e+00 3.1902e-03 0.0000e+00
0.0000e+00 3.0907e-03 0.0000e+00
0.0000e+00 2.9906e-03 0.0000e+00
0.0000e+00 2.8911e-03 0.0000e+00
0.0000e+00 2.7915e-03 0.0000e+00
0.0000e+00 2.6918e-03 0.0000e+00
0.0000e+00 2.5918e-03 0.0000e+00
0.0000e+00 2.4915e-03 0.0000e+00
0.0000e+00 2.3907e-03 0.0000e+00
0.0000e+00 2.2892e-03 0.0000e+00
0.0000e+00 2.1867e-03 0.0000e+00
0.0000e+00 2.0828e-03 0.0000e+00
0.0000e+00 1.9773e-03 0.0000e+00
0.0000e+00 1.8695e-03 0.0000e+00
0.0000e+00 1.7589e-03 0.0000e+00
0.0000e+00 1.6445e-03 0.0000e+00
0.0000e+00 1.5259e-03 0.0000e+00
0.0000e+00 1.4020e-03 0.0000e+00
0.0000e+00 1.2731e-03 0.0000e+00
0.0000e+00 1.1382e-03 0.0000e+00
0.0000e+00 1.0006e-03 0.0000e+00
0.0000e+00 8.6041e-04 0.0000e+00
0.0000e+00 7.1793e-04 0.0000e+00
0.0000e+00 5.7391e-04 0.0000e+00
0.0000e+00 4.2901e-04 0.0000e+00
0.0000e+00 2.8310e-04 0.0000e+00
0.0000e+00 1.3519e-04 0.0000e+00
1.4660e-04 1.3684e-04 0.0000e+00
1.4753e-04 2.8308e-04 0.0000e+00
1.4794e-04 4.2886e-04 0.0000e+00
1.4838e-04 5.7376e-04 0.0000e+00
1.4900e-04 7.1770e-04 0.0000e+00
1.4988e-04 8.6024e-04 0.0000e+00
1.5113e-04 1.0001e-03 0.0000e+00
1.5294e-04 1.1376e-03 0.0000e+00
1.5551e-04 1.2718e-03 0.0000e+00
1.5863e-04 1.4004e-03 0.0000e+00
1.6201e-04 1.5237e-03 0.0000e+00
1.6520e-04 1.6423e-03 0.0000e+00
1.6804e-04 1.7566e-03 0.0000e+00
1.7044e-04 1.8674e-03 0.0000e+00
1.7241e-04 1.9753e-03 0.0000e+00
1.7398e-04 2.0810e-03 0.0000e+00
1.7520e-04 2.1849e-03 0.0000e+00
1.7613e-04 2.2876e-03 0.0000e+00
1.7683e-04 2.3894e-03 0.0000e+00
1.7733e-04 2.4904e-03 0.0000e+00
1.7768e-04 2.5909e-03 0.0000e+00
1.7792e-04 2.6911e-03 0.0000e+00
1.7809e-04 2.7910e-03 0.0000e+00
1.7819e-04 2.8908e-03 0.0000e+00
1.7824e-04 2.9905e-03 0.0000e+00
1.7824e-04 3.0908e-03 0.0000e+00
1.7819e-04 3.1905e-03 0.0000e+00
1.7809e-04 3.2903e-03 0.0000e+00
1.7792e-04 3.3902e-03 0.0000e+00
1.7768e-04 3.4904e-03 0.0000e+00
1.7733e-04 3.5909e-03 0.0000e+00
1.7683e-04 3.6919e-03 0.0000e+00
1.7613e-04 3.7936e-03 0.0000e+00
1.7520e-04 3.8963e-03 0.0000e+00
1.7397e-04 4.0003e-03 0.0000e+00
1.7241e-04 4.1060e-03 0.0000e+00
1.7044e-04 4.2139e-03 0.0000e+00
1.6804e-04 4.3247e-03 0.0000e+00
1.6520e-04 4.4389e-03 0.0000e+00
1.6201e-04 4.5575e-03 0.0000e+00
1.5863e-04 4.6808e-03 0.0000e+00
1.5551e-04 4.8095e-03 0.0000e+00
1.5295e-04 4.9437e-03 0.0000e+00
1.5114e-04 5.0812e-03 0.0000e+00
1.4989e-04 5.2214e-03 0.0000e+00
1.4900e-04 5.3638e-03 0.0000e+00
1.4840e-04 5.5076e-03 0.0000e+00
1.4798e-04 5.6525e-03 0.0000e+00
1.4765e-04 5.7980e-03 0.0000e+00
1.4727e-04 5.9442e-03 0.0000e+00
2.9434e-04 1.3705e-04 0.0000e+00
2.9508e-04 2.8314e-04 0.0000e+00
2.9584e-04 4.2880e-04 0.0000e+00
2.9673e-04 5.7353e-04 0.0000e+00
2.9800e-04 7.1730e-04 0.0000e+00
2.9984e-04 8.5941e-04 0.0000e+00
3.0247e-04 9.9892e-04 0.0000e+00
3.0632e-04 1.1355e-03 0.0000e+00
3.1154e-04 1.2689e-03 0.0000e+00
3.1774e-04 1.3963e-03 0.0000e+00
3.2418e-04 1.5191e-03 0.0000e+00
3.3033e-04 1.6372e-03 0.0000e+00
3.3577e-04 1.7515e-03 0.0000e+00
3.4044e-04 1.8624e-03 0.0000e+00
3.4430e-04 1.9707e-03 0.0000e+00
3.4741e-04 2.0768e-03 0.0000e+00
3.4982e-04 2.1813e-03 0.0000e+00
3.5167e-04 2.2845e-03 0.0000e+00
3.5306e-04 2.3867e-03 0.0000e+00
3.5410e-04 2.4882e-03 0.0000e+00
3.5483e-04 2.5892e-03 0.0000e+00
3.5534e-04 2.6898e-03 0.0000e+00
3.5568e-04 2.7901e-03 0.0000e+00
3.5590e-04 2.8902e-03 0.0000e+00
3.5601e-04 2.9903e-03 0.0000e+00
3.5601e-04 3.0910e-03 0.0000e+00
3.5590e-04 3.1910e-03 0.0000e+00
3.5568e-04 3.2912e-03 0.0000e+00
3.5534e-04 3.3915e-03 0.0000e+00
3.5483e-04 3.4921e-03 0.0000e+00
3.5410e-04 3.5930e-03 0.0000e+00
3.5306e-04 3.6945e-03 0.0000e+00
3.5167e-04 3.7968e-03 0.0000e+00
3.4982e-04 3.9000e-03 0.0000e+00
3.4741e-04 4.0045e-03 0.0000e+00
3.4430e-04 4.1106e-03 0.0000e+00
3.4044e-04 4.2189e-03 0.0000e+00
3.3577e-04 4.3298e-03 0.0000e+00
3.3033e-04 4.4441e-03 0.0000e+00
3.2418e-04 4.5622e-03 0.0000e+00
3.1774e-04 4.6850e-03 0.0000e+00
3.1154e-04 4.8124e-03 0.0000e+00
3.0634e-04 4.9458e-03 0.0000e+00
3.0249e-04 5.0823e-03 0.0000e+00
2.9985e-04 5.2222e-03 0.0000e+00
2.9802e-04 5.3642e-03 0.0000e+00
2.9676e-04 5.5079e-03 0.0000e+00
2.9589e-04 5.6526e-03 0.0000e+00
2.9521e-04 5.7981e-03 0.0000e+00
2.9461e-04 5.9442e-03 0.0000e+00
4.4188e-04 1.3709e-04 0.0000e+00
4.4284e-04 2.8320e-04 0.0000e+00
4.4392e-04 4.2870e-04 0.0000e+00
4.4538e-04 5.7323e-04 0.0000e+00
4.4741e-04 7.1653e-04 0.0000e+00
4.5030e-04 8.5817e-04 0.0000e+00
4.5460e-04 9.9665e-04 0.0000e+00
4.6072e-04 1.1321e-03 0.0000e+00
4.6874e-04 1.2638e-03 0.0000e+00
4.7773e-04 1.3901e-03 0.0000e+00
4.8694e-04 1.5117e-03 0.0000e+00
4.9558e-04 1.6294e-03 0.0000e+00
5.0336e-04 1.7435e-03 0.0000e+00
5.1001e-04 1.8548e-03 0.0000e+00
5.1559e-04 1.9635e-03 0.0000e+00
5.2013e-04 2.0704e-03 0.0000e+00
5.2372e-04 2.1756e-03 0.0000e+00
5.2649e-04 2.2796e-03 0.0000e+00
5.2861e-04 2.3826e-03 0.0000e+00
5.3020e-04 2.4849e-03 0.0000e+00
5.3138e-04 2.5865e-03 0.0000e+00
5.3222e-04 2.6878e-03 0.0000e+00
5.3280e-04 2.7887e-03 0.0000e+00
5.3315e-04 2.8894e-03 0.0000e+00
5.3333e-04 2.9900e-03 0.0000e+00
5.3333e-04 3.0913e-03 0.0000e+00
5.3315e-04 3.1919e-03 0.0000e+00
5.3280e-04 3.2926e-03 0.0000e+00
5.3222e-04 3.3935e-03 0.0000e+00
5.3138e-04 3.4947e-03 0.0000e+00
5.3020e-04 3.5964e-03 0.0000e+00
5.2861e-04 3.6987e-03 0.0000e+00
5.2649e-04 3.8017e-03 0.0000e+00
5.2372e-04 3.9057e-03 0.0000e+00
5.2012e-04 4.0109e-03 0.0000e+00
5.1559e-04 4.1177e-03 0.0000e+00
5.1001e-04 4.2265e-03 0.0000e+00
5.0335e-04 4.3378e-03 0.0000e+00
4.9558e-04 4.4519e-03 0.0000e+00
4.8694e-04 4.5696e-03 0.0000e+00
4.7773e-04 4.6912e-03 0.0000e+00
4.6875e-04 4.8175e-03 0.0000e+00
4.6074e-04 4.9492e-03 0.0000e+00
4.5463e-04 5.0846e-03 0.0000e+00
4.5032e-04 5.2234e-03 0.0000e+00
4.4744e-04 5.3650e-03 0.0000e+00
4.4542e-04 5.5082e-03 0.0000e+00
4.4398e-04 5.6527e-03 0.0000e+00
4.4293e-04 5.7981e-03 0.0000e+00
4.4199e-04 5.9442e-03 0.0000e+00
5.8926e-04 1.3714e-04 0.0000e+00
5.9051e-04 2.8318e-04 0.0000e+00
5.9208e-04 4.2857e-04 0.0000e+00
5.9422e-04 5.7269e-04 0.0000e+00
5.9713e-04 7.1554e-04 0.0000e+00
6.0136e-04 8.5622e-04 0.0000e+00
6.0765e-04 9.9356e-04 0.0000e+00
6.1642e-04 1.1270e-03 0.0000e+00
6.2709e-04 1.2570e-03 0.0000e+00
6.3866e-04 1.3815e-03 0.0000e+00
6.5008e-04 1.5021e-03 0.0000e+00
6.6084e-04 1.6191e-03 0.0000e+00
6.7044e-04 1.7333e-03 0.0000e+00
6.7880e-04 1.8448e-03 0.0000e+00
6.8583e-04 1.9543e-03 0.0000e+00
6.9165e-04 2.0619e-03 0.0000e+00
6.9634e-04 2.1681e-03 0.0000e+00
7.0005e-04 2.2731e-03 0.0000e+00
7.0293e-04 2.3771e-03 0.0000e+00
7.0514e-04 2.4804e-03 0.0000e+00
7.0682e-04 2.5830e-03 0.0000e+00
7.0805e-04 2.6851e-03 0.0000e+00
7.0891e-04 2.7868e-03 0.0000e+00
7.0945e-04 2.8883e-03 0.0000e+00
7.0971e-04 2.9896e-03 0.0000e+00
7.0971e-04 3.0916e-03 0.0000e+00
7.0945e-04 3.1930e-03 0.0000e+00
7.0891e-04 3.2945e-03 0.0000e+00
7.0805e-04 3.3962e-03 0.0000e+00
7.0682e-04 3.4983e-03 0.0000e+00
7.0514e-04 3.6009e-03 0.0000e+00
7.0293e-04 3.7041e-03 0.0000e+00
7.0005e-04 3.8081e-03 0.0000e+00
6.9634e-04 3.9131e-03 0.0000e+00
6.9165e-04 4.0194e-03 0.0000e+00
6.8583e-04 4.1270e-03 0.0000e+00
6.7880e-04 4.2365e-03 0.0000e+00
6.7044e-04 4.3480e-03 0.0000e+00
6.6084e-04 4.4621e-03 0.0000e+00
6.5009e-04 4.5791e-03 0.0000e+00
6.3867e-04 4.6998e-03 0.0000e+00
6.2711e-04 4.8243e-03 0.0000e+00
6.1644e-04 4.9542e-03 0.0000e+00
6.0768e-04 5.0877e-03 0.0000e+00
6.0139e-04 5.2254e-03 0.0000e+00
5.9716e-04 5.3660e-03 0.0000e+00
5.9426e-04 5.5087e-03 0.0000e+00
5.9212e-04 5.6529e-03 0.0000e+00
5.9057e-04 5.7982e-03 0.0000e+00
5.8931e-04 5.9442e-03 0.0000e+00
7.3671e-04 1.3713e-04 0.0000e+00
7.3836e-04 2.8315e-04 0.0000e+00
7.4055e-04 4.2826e-04 0.0000e+00
7.4354e-04 5.7202e-04 0.0000e+00
7.4754e-04 7.1406e-04 0.0000e+00
7.5350e-04 8.5371e-04 0.0000e+00
7.6235e-04 9.8903e-04 0.0000e+00
7.7382e-04 1.1205e-03 0.0000e+00
7.8710e-04 1.2482e-03 0.0000e+00
8.0070e-04 1.3712e-03 0.0000e+00
8.1398e-04 1.4905e-03 0.0000e+00
8.2623e-04 1.6071e-03 0.0000e+00
8.3729e-04 1.7211e-03 0.0000e+00
8.4691e-04 1.8331e-03 0.0000e+00
8.5516e-04 1.9433e-03 0.0000e+00
8.6205e-04 2.0519e-03 0.0000e+00
8.6775e-04 2.1592e-03 0.0000e+00
8.7237e-04 2.2654e-03 0.0000e+00
8.7605e-04 2.3705e-03 0.0000e+00
8.7894e-04 2.4749e-03 0.0000e+00
8.8116e-04 2.5785e-03 0.0000e+00
8.8284e-04 2.6817e-03 0.0000e+00
8.8403e-04 2.7844e-03 0.0000e+00
8.8479e-04 2.8869e-03 0.0000e+00
8.8516e-04 2.9892e-03 0.0000e+00
8.8516e-04 3.0921e-03 0.0000e+00
8.8479e-04 3.1944e-03 0.0000e+00
8.8403e-04 3.2969e-03 0.0000e+00
8.8284e-04 3.3996e-03 0.0000e+00
8.8116e-04 3.5027e-03 0.0000e+00
8.7894e-04 3.6064e-03 0.0000e+00
8.7605e-04 3.7108e-03 0.0000e+00
8.7236e-04 3.8159e-03 0.0000e+00
8.6775e-04 3.9221e-03 0.0000e+00
8.6205e-04 4.0294e-03 0.0000e+00
8.5516e-04 4.1380e-03 0.0000e+00
8.4691e-04 4.2481e-03 0.0000e+00
8.3729e-04 4.3601e-03 0.0000e+00
8.2623e-04 4.4742e-03 0.0000e+00
8.1399e-04 4.5907e-03 0.0000e+00
8.0071e-04 4.7101e-03 0.0000e+00
7.8712e-04 4.8331e-03 0.0000e+00
7.7384e-04 4.9608e-03 0.0000e+00
7.6238e-04 5.0922e-03 0.0000e+00
7.5352e-04 5.2279e-03 0.0000e+00
7.4756e-04 5.3675e-03 0.0000e+00
7.4357e-04 5.5094e-03 0.0000e+00
7.4058e-04 5.6532e-03 0.0000e+00
7.3839e-04 5.7982e-03 0.0000e+00
7.3673e-04 5.9442e-03 0.0000e+00
8.8418e-04 1.3715e-04 0.0000e+00
8.8631e-04 2.8299e-04 0.0000e+00
8.8934e-04 4.2783e-04 0.0000e+00
8.9331e-04 5.7096e-04 0.0000e+00
8.9875e-04 7.1219e-04 0.0000e+00
9.0717e-04 8.4998e-04 0.0000e+00
9.1885e-04 9.8319e-04 0.0000e+00
9.3311e-04 1.1120e-03 0.0000e+00
9.4846e-04 1.2377e-03 0.0000e+00
9.6381e-04 1.3589e-03 0.0000e+00
9.7828e-04 1.4775e-03 0.0000e+00
9.9168e-04 1.5935e-03 0.0000e+00
1.0037e-03 1.7077e-03 0.0000e+00
1.0143e-03 1.8201e-03 0.0000e+00
1.0234e-03 1.9311e-03 0.0000e+00
1.0312e-03 2.0407e-03 0.0000e+00
1.0378e-03 2.1492e-03 0.0000e+00
1.0432e-03 2.2565e-03 0.0000e+00
1.0477e-03 2.3629e-03 0.0000e+00
1.0513e-03 2.4685e-03 0.0000e+00
1.0541e-03 2.5734e-03 0.0000e+00
1.0563e-03 2.6777e-03 0.0000e+00
1.0578e-03 2.7816e-03 0.0000e+00
1.0589e-03 2.8852e-03 0.0000e+00
1.0594e-03 2.9886e-03 0.0000e+00
1.0594e-03 3.0927e-03 0.0000e+00
1.0589e-03 3.1961e-03 0.0000e+00
1.0578e-03 3.2996e-03 0.0000e+00
1.0563e-03 3.4035e-03 0.0000e+00
1.0541e-03 3.5079e-03 0.0000e+00
1.0513e-03 3.6128e-03 0.0000e+00
1.0477e-03 3.7183e-03 0.0000e+00
1.0432e-03 3.8248e-03 0.0000e+00
1.0378e-03 3.9321e-03 0.0000e+00
1.0312e-03 4.0405e-03 0.0000e+00
1.0234e-03 4.1502e-03 0.0000e+00
1.0143e-03 4.2611e-03 0.0000e+00
1.0037e-03 4.3736e-03 0.0000e+00
9.9169e-04 4.4877e-03 0.0000e+00
9.7829e-04 4.6038e-03 0.0000e+00
9.6382e-04 4.7223e-03 0.0000e+00
9.4848e-04 4.8435e-03 0.0000e+00
9.3314e-04 4.9693e-03 0.0000e+00
9.1887e-04 5.0981e-03 0.0000e+00
9.0717e-04 5.2316e-03 0.0000e+00
8.9876e-04 5.3694e-03 0.0000e+00
8.9333e-04 5.5105e-03 0.0000e+00
8.8935e-04 5.6536e-03 0.0000e+00
8.8633e-04 5.7984e-03 0.0000e+00
8.8419e-04 5.9442e-03 0.0000e+00
1.0312e-03 1.3710e-04 0.0000e+00
1.0340e-03 2.8281e-04 0.0000e+00
1.0380e-03 4.2712e-04 0.0000e+00
1.0431e-03 5.6963e-04 0.0000e+00
1.0508e-03 7.0931e-04 0.0000e+00
1.0622e-03 8.4503e-04 0.0000e+00
1.0770e-03 9.7533e-04 0.0000e+00
1.0935e-03 1.1018e-03 0.0000e+00
1.1107e-03 1.2254e-03 0.0000e+00
1.1270e-03 1.3454e-03 0.0000e+00
1.1424e-03 1.4631e-03 0.0000e+00
1.1564e-03 1.5790e-03 0.0000e+00
1.1690e-03 1.6934e-03 0.0000e+00
1.1802e-03 1.8065e-03 0.0000e+00
1.1900e-03 1.9182e-03 0.0000e+00
1.1986e-03 2.0289e-03 0.0000e+00
1.2059e-03 2.1384e-03 0.0000e+00
1.2121e-03 2.2470e-03 0.0000e+00
1.2174e-03 2.3547e-03 0.0000e+00
1.2216e-03 2.4616e-03 0.0000e+00
1.2251e-03 2.5677e-03 0.0000e+00
1.2277e-03 2.6733e-03 0.0000e+00
1.2297e-03 2.7785e-03 0.0000e+00
1.2309e-03 2.8833e-03 0.0000e+00
1.2315e-03 2.9880e-03 0.0000e+00
1.2315e-03 3.0933e-03 0.0000e+00
1.2309e-03 3.1979e-03 0.0000e+00
1.2297e-03 3.3028e-03 0.0000e+00
1.2277e-03 3.4079e-03 0.0000e+00
1.2251e-03 3.5135e-03 0.0000e+00
1.2216e-03 3.6197e-03 0.0000e+00
1.2174e-03 3.7266e-03 0.0000e+00
1.2121e-03 3.8343e-03 0.0000e+00
1.2059e-03 3.9428e-03 0.0000e+00
1.1986e-03 4.0524e-03 0.0000e+00
1.1900e-03 4.1630e-03 0.0000e+00
1.1802e-03 4.2748e-03 0.0000e+00
1.1690e-03 4.3879e-03 0.0000e+00
1.1564e-03 4.5022e-03 0.0000e+00
1.1424e-03 4.6182e-03 0.0000e+00
1.1271e-03 4.7359e-03 0.0000e+00
1.1107e-03 4.8559e-03 0.0000e+00
1.0935e-03 4.9794e-03 0.0000e+00
1.0770e-03 5.1059e-03 0.0000e+00
1.0622e-03 5.2366e-03 0.0000e+00
1.0508e-03 5.3722e-03 0.0000e+00
1.0431e-03 5.5118e-03 0.0000e+00
1.0380e-03 5.6544e-03 0.0000e+00
1.0340e-03 5.7986e-03 0.0000e+00
1.0312e-03 5.9443e-03 0.0000e+00
1.1786e-03 1.3705e-04 0.0000e+00
1.1824e-03 2.8241e-04 0.0000e+00
1.1875e-03 4.2629e-04 0.0000e+00
1.1944e-03 5.6755e-04 0.0000e+00
1.2050e-03 7.0532e-04 0.0000e+00
1.2200e-03 8.3794e-04 0.0000e+00
1.2375e-03 9.6560e-04 0.0000e+00
1.2561e-03 1.0895e-03 0.0000e+00
1.2743e-03 1.2115e-03 0.0000e+00
1.2913e-03 1.3304e-03 0.0000e+00
1.3069e-03 1.4477e-03 0.0000e+00
1.3212e-03 1.5637e-03 0.0000e+00
1.3341e-03 1.6786e-03 0.0000e+00
1.3458e-03 1.7923e-03 0.0000e+00
1.3561e-03 1.9050e-03 0.0000e+00
1.3652e-03 2.0166e-03 0.0000e+00
1.3732e-03 2.1273e-03 0.0000e+00
1.3801e-03 2.2370e-03 0.0000e+00
1.3860e-03 2.3459e-03 0.0000e+00
1.3909e-03 2.4541e-03 0.0000e+00
1.3949e-03 2.5616e-03 0.0000e+00
1.3981e-03 2.6686e-03 0.0000e+00
1.4004e-03 2.7751e-03 0.0000e+00
1.4019e-03 2.8813e-03 0.0000e+00
1.4027e-03 2.9873e-03 0.0000e+00
1.4027e-03 3.0940e-03 0.0000e+00
1.4019e-03 3.2000e-03 0.0000e+00
1.4004e-03 3.3062e-03 0.0000e+00
1.3981e-03 3.4127e-03 0.0000e+00
1.3949e-03 3.5197e-03 0.0000e+00
1.3909e-03 3.6272e-03 0.0000e+00
1.3860e-03 3.7353e-03 0.0000e+00
1.3801e-03 3.8443e-03 0.0000e+00
1.3732e-03 3.9540e-03 0.0000e+00
1.3652e-03 4.0647e-03 0.0000e+00
1.3561e-03 4.1763e-03 0.0000e+00
1.3458e-03 4.2890e-03 0.0000e+00
1.3341e-03 4.4027e-03 0.0000e+00
1.3212e-03 4.5175e-03 0.0000e+00
1.3069e-03 4.6335e-03 0.0000e+00
1.2913e-03 4.7509e-03 0.0000e+00
1.2743e-03 4.8698e-03 0.0000e+00
1.2561e-03 4.9918e-03 0.0000e+00
1.2375e-03 5.1157e-03 0.0000e+00
1.2200e-03 5.2437e-03 0.0000e+00
1.2050e-03 5.3762e-03 0.0000e+00
1.1944e-03 5.5139e-03 0.0000e+00
1.1875e-03 5.6552e-03 0.0000e+00
1.1824e-03 5.7990e-03 0.0000e+00
1.1786e-03 5.9443e-03 0.0000e+00
1.3273e-03 1.3687e-04 0.0000e+00
1.3322e-03 2.8191e-04 0.0000e+00
1.3388e-03 4.2485e-04 0.0000e+00
1.3484e-03 5.6457e-04 0.0000e+00
1.3630e-03 6.9918e-04 0.0000e+00
1.3813e-03 8.2876e-04 0.0000e+00
1.4013e-03 9.5324e-04 0.0000e+00
1.4209e-03 1.0752e-03 0.0000e+00
1.4397e-03 1.1958e-03 0.0000e+00
1.4567e-03 1.3143e-03 0.0000e+00
1.4723e-03 1.4316e-03 0.0000e+00
1.4866e-03 1.5480e-03 0.0000e+00
1.4997e-03 1.6634e-03 0.0000e+00
1.5116e-03 1.7778e-03 0.0000e+00
1.5223e-03 1.8914e-03 0.0000e+00
1.5320e-03 2.0040e-03 0.0000e+00
1.5405e-03 2.1158e-03 0.0000e+00
1.5480e-03 2.2267e-03 0.0000e+00
1.5545e-03 2.3369e-03 0.0000e+00
1.5600e-03 2.4463e-03 0.0000e+00
1.5645e-03 2.5552e-03 0.0000e+00
1.5681e-03 2.6635e-03 0.0000e+00
1.5707e-03 2.7715e-03 0.0000e+00
1.5725e-03 2.8791e-03 0.0000e+00
1.5734e-03 2.9866e-03 0.0000e+00
1.5734e-03 3.0947e-03 0.0000e+00
1.5725e-03 3.2022e-03 0.0000e+00
1.5707e-03 3.3098e-03 0.0000e+00
1.5681e-03 3.4177e-03 0.0000e+00
1.5645e-03 3.5261e-03 0.0000e+00
1.5600e-03 3.6349e-03 0.0000e+00
1.5545e-03 3.7444e-03 0.0000e+00
1.5480e-03 3.8546e-03 0.0000e+00
1.5405e-03 3.9655e-03 0.0000e+00
1.5320e-03 4.0773e-03 0.0000e+00
1.5223e-03 4.1899e-03 0.0000e+00
1.5116e-03 4.3034e-03 0.0000e+00
1.4997e-03 4.4179e-03 0.0000e+00
1.4866e-03 4.5333e-03 0.0000e+00
1.4724e-03 4.6497e-03 0.0000e+00
1.4567e-03 4.7670e-03 0.0000e+00
1.4397e-03 4.8855e-03 0.0000e+00
1.4209e-03 5.0060e-03 0.0000e+00
1.4013e-03 5.1280e-03 0.0000e+00
1.3812e-03 5.2529e-03 0.0000e+00
1.3629e-03 5.3824e-03 0.0000e+00
1.3483e-03 5.5169e-03 0.0000e+00
1.3388e-03 5.6566e-03 0.0000e+00
1.3322e-03 5.7995e-03 0.0000e+00
1.3273e-03 5.9445e-03 0.0000e+00
1.4751e-03 1.3674e-04 0.0000e+00
1.4815e-03 2.8113e-04 0.0000e+00
1.4903e-03 4.2287e-04 0.0000e+00
1.5039e-03 5.5959e-04 0.0000e+00
1.5226e-03 6.9086e-04 0.0000e+00
1.5442e-03 8.1664e-04 0.0000e+00
1.5654e-03 9.3883e-04 0.0000e+00
1.5856e-03 1.0591e-03 0.0000e+00
1.6039e-03 1.1791e-03 0.0000e+00
1.6207e-03 1.2975e-03 0.0000e+00
1.6360e-03 1.4152e-03 0.0000e+00
1.6503e-03 1.5321e-03 0.0000e+00
1.6634e-03 1.6482e-03 0.0000e+00
1.6755e-03 1.7634e-03 0.0000e+00
1.6865e-03 1.8779e-03 0.0000e+00
1.6966e-03 1.9915e-03 0.0000e+00
1.7056e-03 2.1043e-03 0.0000e+00
1.7136e-03 2.2164e-03 0.0000e+00