# vtk DataFile Version 3.0
VTK Example
ASCII
DATASET UNSTRUCTURED_GRID
POINTS 927 float 
0.000147141 0.000143528 0.0
0.000294051 0.00014346 0.0
0.000441344 0.000143386 0.0
0.000588563 0.00014344 0.0
0.000735731 0.000143424 0.0
0.000882905 0.000143433 0.0
0.00103007 0.000143417 0.0
0.00117725 0.00014341 0.0
0.00132442 0.000143403 0.0
0.00147161 0.000143378 0.0
0.00161882 0.000143362 0.0
0.00176606 0.00014332 0.0
0.00191337 0.000143258 0.0
0.00206072 0.000143193 0.0
0.00220825 0.000142923 0.0
0.00235313 0.00014217 0.0
0.00251405 0.000124276 0.0
0.000147321 0.000288765 0.0
0.00029422 0.000289071 0.0
0.000441659 0.00028919 0.0
0.000588944 0.000289187 0.0
0.000736263 0.000289209 0.0
0.000883553 0.000289185 0.0
0.00103086 0.000289191 0.0
0.00117817 0.000289179 0.0
0.0013255 0.000289176 0.0
0.00147283 0.000289162 0.0
0.00162022 0.000289106 0.0
0.00176767 0.000289054 0.0
0.00191514 0.00028896 0.0
0.00206274 0.000288796 0.0
0.00221167 0.000287055 0.0
0.00238127 0.00026667 0.0
0.00256816 0.000224673 0.0
0.00270538 0.000220085 0.0
0.000147263 0.000435508 0.0
0.000294688 0.00043546 0.0
0.000441997 0.000435507 0.0
0.000589445 0.000435528 0.0
0.000736852 0.000435499 0.0
0.000884301 0.000435489 0.0
0.00103174 0.000435454 0.0
0.00117922 0.000435443 0.0
0.00132669 0.000435411 0.0
0.00147421 0.000435362 0.0
0.00162174 0.000435286 0.0
0.0017693 0.00043513 0.0
0.00191707 0.000434908 0.0
0.00206695 0.000432523 0.0
0.00223131 0.000416417 0.0
0.00240528 0.000386304 0.0
0.00257731 0.00035019 0.0
0.0027271 0.000329911 0.0
0.000147465 0.000581827 0.0
0.000294912 0.00058185 0.0
0.000442448 0.000581821 0.0
0.00058995 0.000581788 0.0
0.000737521 0.000581757 0.0
0.000885085 0.00058169 0.0
0.0010327 0.000581649 0.0
0.00118031 0.000581589 0.0
0.00132797 0.000581547 0.0
0.0014756 0.000581461 0.0
0.00162329 0.000581336 0.0
0.00177143 0.000580703 0.0
0.00192295 0.000577178 0.0
0.00208812 0.000561425 0.0
0.00225986 0.000535191 0.0
0.00242491 0.00050922 0.0
0.00258093 0.0004905 0.0
0.00273927 0.0004765 0.0
0.000147588 0.000727982 0.0
0.000295215 0.000727922 0.0
0.000442836 0.000727872 0.0
0.000590515 0.00072781 0.0
0.00073819 0.000727722 0.0
0.000885913 0.000727647 0.0
0.00103364 0.000727537 0.0
0.00118142 0.000727469 0.0
0.00132921 0.00072735 0.0
0.00147722 0.000727119 0.0
0.00162619 0.00072604 0.0
0.00178013 0.000720604 0.0
0.0019468 0.000704635 0.0
0.00211695 0.000681618 0.0
0.00228069 0.000659381 0.0
0.00243723 0.000641441 0.0
0.00259567 0.000630182 0.0
0.00276317 0.000626251 0.0
0.000147747 0.000873821 0.0
0.000295474 0.000873754 0.0
0.000443249 0.000873657 0.0
0.000591045 0.000873541 0.0
0.000738892 0.000873434 0.0
0.000886763 0.000873277 0.0
0.00103471 0.000873142 0.0
0.00118277 0.000872888 0.0
0.00133132 0.000872392 0.0
0.00148185 0.000870169 0.0
0.00163926 0.000862649 0.0
0.00180721 0.000846593 0.0
0.00197512 0.000825749 0.0
0.00213767 0.000806889 0.0
0.00229447 0.000790741 0.0
0.00244725 0.000777292 0.0
0.00259532 0.000764924 0.0
0.00274598 0.000752148 0.0
0.000147901 0.00101937 0.0
0.000295805 0.0010193 0.0
0.000443713 0.00101915 0.0
0.0005917 0.00101897 0.0
0.000739781 0.00101875 0.0
0.000887979 0.00101851 0.0
0.00103645 0.00101803 0.0
0.00118588 0.00101691 0.0
0.00133874 0.00101301 0.0
0.00149939 0.00100349 0.0
0.00166734 0.000987118 0.0
0.00183338 0.000968692 0.0
0.001995 0.000952036 0.0
0.00215173 0.000937567 0.0
0.00230524 0.000925306 0.0
0.00245693 0.00091365 0.0
0.00261195 0.000898142 0.0
0.00276951 0.000878046 0.0
0.00289005 0.000891074 0.0
0.000148108 0.00116456 0.0
0.00029625 0.00116443 0.0
0.000444436 0.00116427 0.0
0.000592691 0.00116392 0.0
0.000741211 0.00116344 0.0
0.00089035 0.00116259 0.0
0.0010412 0.00116045 0.0
0.00119691 0.00115451 0.0
0.00135991 0.00114332 0.0
0.00152696 0.00112695 0.0
0.00169128 0.00111032 0.0
0.00185202 0.0010953 0.0
0.00200873 0.00108224 0.0
0.00216285 0.00107095 0.0
0.00231517 0.00106035 0.0
0.00246659 0.00104983 0.0
0.00261732 0.00103866 0.0
0.00277203 0.00101958 0.0
0.00291387 0.00100404 0.0
0.000148434 0.00130922 0.0
0.000296883 0.00130903 0.0
0.000445548 0.00130862 0.0
0.000594612 0.00130792 0.0
0.000744711 0.00130623 0.0
0.000897646 0.00130261 0.0
0.00105619 0.00129483 0.0
0.00122013 0.00128235 0.0
0.00138571 0.00126632 0.0
0.00154866 0.00125093 0.0
0.00170865 0.00123697 0.0
0.00186536 0.00122495 0.0
0.00201994 0.00121445 0.0
0.00217283 0.00120475 0.0
0.00232488 0.00119531 0.0
0.00247616 0.00118549 0.0
0.00262679 0.00117515 0.0
0.00277622 0.00116407 0.0
0.00292555 0.00114898 0.0
0.000149046 0.00145306 0.0
0.000298255 0.00145246 0.0
0.000448279 0.00145119 0.0
0.000600131 0.00144861 0.0
0.00075536 0.00144345 0.0
0.000915535 0.00143393 0.0
0.00107924 0.00142071 0.0
0.00124348 0.00140525 0.0
0.00140539 0.00139059 0.0
0.00156481 0.00137731 0.0
0.00172154 0.00136594 0.0
0.00187648 0.00135599 0.0
0.0020299 0.00134703 0.0
0.00218247 0.00133848 0.0
0.00233423 0.00132981 0.0
0.0024854 0.00132085 0.0
0.00263588 0.00131129 0.0
0.0027868 0.00130115 0.0
0.00294655 0.00129318 0.0
0.00015063 0.00159454 0.0
0.000302157 0.00159287 0.0
0.000455802 0.00158899 0.0
0.000612852 0.00158249 0.0
0.000773852 0.00157198 0.0
0.000936932 0.00155842 0.0
0.00110009 0.00154336 0.0
0.00126131 0.00152921 0.0
0.0014204 0.00151639 0.0
0.0015772 0.00150539 0.0
0.00173243 0.0014958 0.0
0.00188627 0.00148734 0.0
0.00203932 0.0014795 0.0
0.00219156 0.00147184 0.0
0.00234321 0.00146406 0.0
0.00249416 0.00145588 0.0
0.00264438 0.00144734 0.0
0.00280147 0.00144127 0.0
0.00297235 0.00144073 0.0
0.000154179 0.00173107 0.0
0.000310014 0.00172682 0.0
0.000468485 0.00171943 0.0
0.000629849 0.00170833 0.0
0.000792686 0.00169496 0.0
0.000955354 0.00168035 0.0
0.0011162 0.00166655 0.0
0.00127518 0.00165405 0.0
0.00143216 0.00164333 0.0
0.00158769 0.00163399 0.0
0.00174192 0.0016259 0.0
0.00189536 0.00161857 0.0
0.002048 0.00161168 0.0
0.00220011 0.00160491 0.0
0.00235154 0.00159799 0.0
0.00250225 0.00159081 0.0
0.00265218 0.00158328 0.0
0.00279885 0.00157549 0.0
0.00295033 0.00156699 0.0
0.000159474 0.00185945 0.0
0.000320325 0.00185289 0.0
0.000482747 0.00184227 0.0
0.000645808 0.00182938 0.0
0.00080846 0.00181539 0.0
0.000969523 0.00180214 0.0
0.0011288 0.00179001 0.0
0.00128615 0.00177957 0.0
0.00144206 0.00177051 0.0
0.00159671 0.00176275 0.0
0.00175051 0.00175584 0.0
0.00190354 0.00174957 0.0
0.00205601 0.0017436 0.0
0.00220783 0.00173773 0.0
0.002359 0.00173179 0.0
0.00250945 0.00172563 0.0
0.00265914 0.00171917 0.0
0.00281245 0.00170875 0.0
0.0029698 0.00169415 0.0
0.00308874 0.00171175 0.0
0.000164898 0.00197957 0.0
0.000330152 0.00197149 0.0
0.000494915 0.00196035 0.0
0.00065859 0.00194757 0.0
0.00082047 0.00193515 0.0
0.000980486 0.00192365 0.0
0.00113859 0.00191372 0.0
0.00129515 0.00190507 0.0
0.00145036 0.00189773 0.0
0.00160462 0.00189128 0.0
0.00175805 0.00188559 0.0
0.00191086 0.00188031 0.0
0.00206302 0.00187532 0.0
0.0022146 0.00187042 0.0
0.0023655 0.00186549 0.0
0.00251573 0.00186038 0.0
0.00266521 0.00185501 0.0
0.0028139 0.00184935 0.0
0.00296673 0.00183622 0.0
0.00310649 0.00182665 0.0
0.000169205 0.00209265 0.0
0.000337473 0.00208525 0.0
0.000503834 0.00207514 0.0
0.000667777 0.00206446 0.0
0.000829363 0.00205414 0.0
0.000988744 0.00204507 0.0
0.00114634 0.00203715 0.0
0.00130241 0.00203047 0.0
0.00145734 0.00202465 0.0
0.00161131 0.00201963 0.0
0.00176454 0.00201507 0.0
0.00191707 0.0020109 0.0
0.00206901 0.00200691 0.0
0.00222031 0.00200303 0.0
0.00237102 0.00199911 0.0
0.00252103 0.00199506 0.0
0.00267031 0.00199081 0.0
0.00281885 0.00198626 0.0
0.0029653 0.00198145 0.0
0.00310823 0.00197301 0.0
0.000171987 0.00220152 0.0
0.000342191 0.00219561 0.0
0.00050962 0.00218812 0.0
0.000674031 0.00218007 0.0
0.000835629 0.00217264 0.0
0.000994898 0.00216598 0.0
0.00115228 0.00216036 0.0
0.0013082 0.00215549 0.0
0.00146294 0.00215137 0.0
0.00161677 0.00214768 0.0
0.00176979 0.0021444 0.0
0.00192214 0.00214133 0.0
0.00207385 0.00213843 0.0
0.00222496 0.00213557 0.0
0.00237545 0.00213269 0.0
0.00252529 0.00212972 0.0
0.00267444 0.00212655 0.0
0.00282288 0.00212312 0.0
0.00296993 0.00211948 0.0
0.00311364 0.00211574 0.0
0.000173592 0.00230766 0.0
0.000344915 0.00230422 0.0
0.000513137 0.00229961 0.0
0.000678027 0.00229492 0.0
0.000839886 0.0022904 0.0
0.000999251 0.00228653 0.0
0.00115664 0.00228312 0.0
0.00131251 0.00228028 0.0
0.00146718 0.00227776 0.0
0.00162088 0.00227558 0.0
0.00177378 0.00227356 0.0
0.00192597 0.00227169 0.0
0.00207752 0.00226988 0.0
0.00222846 0.00226808 0.0
0.00237879 0.00226625 0.0
0.0025285 0.00226433 0.0
0.00267757 0.00226224 0.0
0.00282587 0.00225996 0.0
0.00297333 0.00225754 0.0
0.00311946 0.00225496 0.0
0.000174429 0.00241259 0.0
0.000346377 0.00241153 0.0
0.000515133 0.00241034 0.0
0.000680408 0.00240892 0.0
0.000842551 0.00240773 0.0
0.00100206 0.00240655 0.0
0.00115953 0.00240564 0.0
0.00131538 0.00240475 0.0
0.00147001 0.00240403 0.0
0.00162362 0.0024033 0.0
0.00177643 0.00240265 0.0
0.00192851 0.00240197 0.0
0.00207995 0.00240129 0.0
0.00223078 0.00240057 0.0
0.00238101 0.00239978 0.0
0.00253064 0.00239892 0.0
0.00267959 0.00239792 0.0
0.00282782 0.00239683 0.0
0.00297547 0.00239559 0.0
0.00312291 0.00239427 0.0
0.000174729 0.00251668 0.0
0.000347005 0.00251842 0.0
0.000516006 0.00252038 0.0
0.000681536 0.00252262 0.0
0.000843807 0.00252457 0.0
0.00100344 0.00252641 0.0
0.00116092 0.00252785 0.0
0.0013168 0.00252914 0.0
0.00147136 0.00253012 0.0
0.00162496 0.00253099 0.0
0.00177769 0.00253165 0.0
0.00192973 0.00253223 0.0
0.0020811 0.00253268 0.0
0.00223189 0.00253304 0.0
0.00238206 0.00253331 0.0
0.00253163 0.00253349 0.0
0.00268054 0.00253364 0.0
0.00282871 0.00253367 0.0
0.00297637 0.00253367 0.0
0.00312389 0.0025336 0.0
0.000174532 0.00262087 0.0
0.000346728 0.00262494 0.0
0.000515785 0.00263042 0.0
0.000681295 0.00263598 0.0
0.000843662 0.00264141 0.0
0.00100327 0.00264603 0.0
0.00116083 0.0026501 0.0
0.00131665 0.00265339 0.0
0.00147127 0.00265625 0.0
0.00162481 0.0026586 0.0
0.00177758 0.00266067 0.0
0.00192958 0.00266245 0.0
0.00208098 0.00266405 0.0
0.00223174 0.00266551 0.0
[...]
POINT_DATA 927
VECTORS Position float
1.4714e-04 1.4353e-04 0.0000e+00
2.9405e-04 1.4346e-04 0.0000e+00
4.4134e-04 1.4339e-04 0.0000e+00
5.8856e-04 1.4344e-04 0.0000e+00
7.3573e-04 1.4342e-04 0.0000e+00
8.8291e-04 1.4343e-04 0.0000e+00
1.0301e-03 1.4342e-04 0.0000e+00
1.1772e-03 1.4341e-04 0.0000e+00
1.3244e-03 1.4340e-04 0.0000e+00
1.4716e-03 1.4338e-04 0.0000e+00
1.6188e-03 1.4336e-04 0.0000e+00
1.7661e-03 1.4332e-04 0.0000e+00
1.9134e-03 1.4326e-04 0.0000e+00
2.0607e-03 1.4319e-04 0.0000e+00
2.2083e-03 1.4292e-04 0.0000e+00
2.3531e-03 1.4217e-04 0.0000e+00
2.5141e-03 1.2428e-04 0.0000e+00
1.4732e-04 2.8877e-04 0.0000e+00
2.9422e-04 2.8907e-04 0.0000e+00
4.4166e-04 2.8919e-04 0.0000e+00
5.8894e-04 2.8919e-04 0.0000e+00
7.3626e-04 2.8921e-04 0.0000e+00
8.8355e-04 2.8919e-04 0.0000e+00
1.0309e-03 2.8919e-04 0.0000e+00
1.1782e-03 2.8918e-04 0.0000e+00
1.3255e-03 2.8918e-04 0.0000e+00
1.4728e-03 2.8916e-04 0.0000e+00
1.6202e-03 2.8911e-04 0.0000e+00
1.7677e-03 2.8905e-04 0.0000e+00
1.9151e-03 2.8896e-04 0.0000e+00
2.0627e-03 2.8880e-04 0.0000e+00
2.2117e-03 2.8705e-04 0.0000e+00
2.3813e-03 2.6667e-04 0.0000e+00
2.5682e-03 2.2467e-04 0.0000e+00
2.7054e-03 2.2009e-04 0.0000e+00
1.4726e-04 4.3551e-04 0.0000e+00
2.9469e-04 4.3546e-04 0.0000e+00
4.4200e-04 4.3551e-04 0.0000e+00
5.8944e-04 4.3553e-04 0.0000e+00
7.3685e-04 4.3550e-04 0.0000e+00
8.8430e-04 4.3549e-04 0.0000e+00
1.0317e-03 4.3545e-04 0.0000e+00
1.1792e-03 4.3544e-04 0.0000e+00
1.3267e-03 4.3541e-04 0.0000e+00
1.4742e-03 4.3536e-04 0.0000e+00
1.6217e-03 4.3529e-04 0.0000e+00
1.7693e-03 4.3513e-04 0.0000e+00
1.9171e-03 4.3491e-04 0.0000e+00
2.0669e-03 4.3252e-04 0.0000e+00
2.2313e-03 4.1642e-04 0.0000e+00
2.4053e-03 3.8630e-04 0.0000e+00
2.5773e-03 3.5019e-04 0.0000e+00
2.7271e-03 3.2991e-04 0.0000e+00
1.4746e-04 5.8183e-04 0.0000e+00
2.9491e-04 5.8185e-04 0.0000e+00
4.4245e-04 5.8182e-04 0.0000e+00
5.8995e-04 5.8179e-04 0.0000e+00
7.3752e-04 5.8176e-04 0.0000e+00
8.8508e-04 5.8169e-04 0.0000e+00
1.0327e-03 5.8165e-04 0.0000e+00
1.1803e-03 5.8159e-04 0.0000e+00
1.3280e-03 5.8155e-04 0.0000e+00
1.4756e-03 5.8146e-04 0.0000e+00
1.6233e-03 5.8134e-04 0.0000e+00
1.7714e-03 5.8070e-04 0.0000e+00
1.9230e-03 5.7718e-04 0.0000e+00
2.0881e-03 5.6142e-04 0.0000e+00
2.2599e-03 5.3519e-04 0.0000e+00
2.4249e-03 5.0922e-04 0.0000e+00
2.5809e-03 4.9050e-04 0.0000e+00
2.7393e-03 4.7650e-04 0.0000e+00
1.4759e-04 7.2798e-04 0.0000e+00
2.9522e-04 7.2792e-04 0.0000e+00
4.4284e-04 7.2787e-04 0.0000e+00
5.9052e-04 7.2781e-04 0.0000e+00
7.3819e-04 7.2772e-04 0.0000e+00
8.8591e-04 7.2765e-04 0.0000e+00
1.0336e-03 7.2754e-04 0.0000e+00
1.1814e-03 7.2747e-04 0.0000e+00
1.3292e-03 7.2735e-04 0.0000e+00
1.4772e-03 7.2712e-04 0.0000e+00
1.6262e-03 7.2604e-04 0.0000e+00
1.7801e-03 7.2060e-04 0.0000e+00
1.9468e-03 7.0463e-04 0.0000e+00
2.1169e-03 6.8162e-04 0.0000e+00
2.2807e-03 6.5938e-04 0.0000e+00
2.4372e-03 6.4144e-04 0.0000e+00
2.5957e-03 6.3018e-04 0.0000e+00
2.7632e-03 6.2625e-04 0.0000e+00
1.4775e-04 8.7382e-04 0.0000e+00
2.9547e-04 8.7375e-04 0.0000e+00
4.4325e-04 8.7366e-04 0.0000e+00
5.9104e-04 8.7354e-04 0.0000e+00
7.3889e-04 8.7343e-04 0.0000e+00
8.8676e-04 8.7328e-04 0.0000e+00
1.0347e-03 8.7314e-04 0.0000e+00
1.1828e-03 8.7289e-04 0.0000e+00
1.3313e-03 8.7239e-04 0.0000e+00
1.4818e-03 8.7017e-04 0.0000e+00
1.6393e-03 8.6265e-04 0.0000e+00
1.8072e-03 8.4659e-04 0.0000e+00
1.9751e-03 8.2575e-04 0.0000e+00
2.1377e-03 8.0689e-04 0.0000e+00
2.2945e-03 7.9074e-04 0.0000e+00
2.4472e-03 7.7729e-04 0.0000e+00
2.5953e-03 7.6492e-04 0.0000e+00
2.7460e-03 7.5215e-04 0.0000e+00
1.4790e-04 1.0194e-03 0.0000e+00
2.9580e-04 1.0193e-03 0.0000e+00
4.4371e-04 1.0192e-03 0.0000e+00
5.9170e-04 1.0190e-03 0.0000e+00
7.3978e-04 1.0187e-03 0.0000e+00
8.8798e-04 1.0185e-03 0.0000e+00
1.0365e-03 1.0180e-03 0.0000e+00
1.1859e-03 1.0169e-03 0.0000e+00
1.3387e-03 1.0130e-03 0.0000e+00
1.4994e-03 1.0035e-03 0.0000e+00
1.6673e-03 9.8712e-04 0.0000e+00
1.8334e-03 9.6869e-04 0.0000e+00
1.9950e-03 9.5204e-04 0.0000e+00
2.1517e-03 9.3757e-04 0.0000e+00
2.3052e-03 9.2531e-04 0.0000e+00
2.4569e-03 9.1365e-04 0.0000e+00
2.6119e-03 8.9814e-04 0.0000e+00
2.7695e-03 8.7805e-04 0.0000e+00
2.8900e-03 8.9107e-04 0.0000e+00
1.4811e-04 1.1646e-03 0.0000e+00
2.9625e-04 1.1644e-03 0.0000e+00
4.4444e-04 1.1643e-03 0.0000e+00
5.9269e-04 1.1639e-03 0.0000e+00
7.4121e-04 1.1634e-03 0.0000e+00
8.9035e-04 1.1626e-03 0.0000e+00
1.0412e-03 1.1605e-03 0.0000e+00
1.1969e-03 1.1545e-03 0.0000e+00
1.3599e-03 1.1433e-03 0.0000e+00
1.5270e-03 1.1270e-03 0.0000e+00
1.6913e-03 1.1103e-03 0.0000e+00
1.8520e-03 1.0953e-03 0.0000e+00
2.0087e-03 1.0822e-03 0.0000e+00
2.1629e-03 1.0710e-03 0.0000e+00
2.3152e-03 1.0604e-03 0.0000e+00
2.4666e-03 1.0498e-03 0.0000e+00
2.6173e-03 1.0387e-03 0.0000e+00
2.7720e-03 1.0196e-03 0.0000e+00
2.9139e-03 1.0040e-03 0.0000e+00
1.4843e-04 1.3092e-03 0.0000e+00
2.9688e-04 1.3090e-03 0.0000e+00
4.4555e-04 1.3086e-03 0.0000e+00
5.9461e-04 1.3079e-03 0.0000e+00
7.4471e-04 1.3062e-03 0.0000e+00
8.9765e-04 1.3026e-03 0.0000e+00
1.0562e-03 1.2948e-03 0.0000e+00
1.2201e-03 1.2823e-03 0.0000e+00
1.3857e-03 1.2663e-03 0.0000e+00
1.5487e-03 1.2509e-03 0.0000e+00
1.7087e-03 1.2370e-03 0.0000e+00
1.8654e-03 1.2250e-03 0.0000e+00
2.0199e-03 1.2144e-03 0.0000e+00
2.1728e-03 1.2048e-03 0.0000e+00
2.3249e-03 1.1953e-03 0.0000e+00
2.4762e-03 1.1855e-03 0.0000e+00
2.6268e-03 1.1752e-03 0.0000e+00
2.7762e-03 1.1641e-03 0.0000e+00
2.9256e-03 1.1490e-03 0.0000e+00
1.4905e-04 1.4531e-03 0.0000e+00
2.9826e-04 1.4525e-03 0.0000e+00
4.4828e-04 1.4512e-03 0.0000e+00
6.0013e-04 1.4486e-03 0.0000e+00
7.5536e-04 1.4434e-03 0.0000e+00
9.1554e-04 1.4339e-03 0.0000e+00
1.0792e-03 1.4207e-03 0.0000e+00
1.2435e-03 1.4052e-03 0.0000e+00
1.4054e-03 1.3906e-03 0.0000e+00
1.5648e-03 1.3773e-03 0.0000e+00
1.7215e-03 1.3659e-03 0.0000e+00
1.8765e-03 1.3560e-03 0.0000e+00
2.0299e-03 1.3470e-03 0.0000e+00
2.1825e-03 1.3385e-03 0.0000e+00
2.3342e-03 1.3298e-03 0.0000e+00
2.4854e-03 1.3209e-03 0.0000e+00
2.6359e-03 1.3113e-03 0.0000e+00
2.7868e-03 1.3012e-03 0.0000e+00
2.9465e-03 1.2932e-03 0.0000e+00
1.5063e-04 1.5945e-03 0.0000e+00
3.0216e-04 1.5929e-03 0.0000e+00
4.5580e-04 1.5890e-03 0.0000e+00
6.1285e-04 1.5825e-03 0.0000e+00
7.7385e-04 1.5720e-03 0.0000e+00
9.3693e-04 1.5584e-03 0.0000e+00
1.1001e-03 1.5434e-03 0.0000e+00
1.2613e-03 1.5292e-03 0.0000e+00
1.4204e-03 1.5164e-03 0.0000e+00
1.5772e-03 1.5054e-03 0.0000e+00
1.7324e-03 1.4958e-03 0.0000e+00
1.8863e-03 1.4873e-03 0.0000e+00
2.0393e-03 1.4795e-03 0.0000e+00
2.1916e-03 1.4718e-03 0.0000e+00
2.3432e-03 1.4641e-03 0.0000e+00
2.4942e-03 1.4559e-03 0.0000e+00
2.6444e-03 1.4473e-03 0.0000e+00
2.8015e-03 1.4413e-03 0.0000e+00
2.9724e-03 1.4407e-03 0.0000e+00
1.5418e-04 1.7311e-03 0.0000e+00
3.1001e-04 1.7268e-03 0.0000e+00
4.6848e-04 1.7194e-03 0.0000e+00
6.2985e-04 1.7083e-03 0.0000e+00
7.9269e-04 1.6950e-03 0.0000e+00
9.5535e-04 1.6804e-03 0.0000e+00
1.1162e-03 1.6665e-03 0.0000e+00
1.2752e-03 1.6540e-03 0.0000e+00
1.4322e-03 1.6433e-03 0.0000e+00
1.5877e-03 1.6340e-03 0.0000e+00
1.7419e-03 1.6259e-03 0.0000e+00
1.8954e-03 1.6186e-03 0.0000e+00
2.0480e-03 1.6117e-03 0.0000e+00
2.2001e-03 1.6049e-03 0.0000e+00
2.3515e-03 1.5980e-03 0.0000e+00
2.5023e-03 1.5908e-03 0.0000e+00
2.6522e-03 1.5833e-03 0.0000e+00
2.7988e-03 1.5755e-03 0.0000e+00
2.9503e-03 1.5670e-03 0.0000e+00
1.5947e-04 1.8594e-03 0.0000e+00
3.2032e-04 1.8529e-03 0.0000e+00
4.8275e-04 1.8423e-03 0.0000e+00
6.4581e-04 1.8294e-03 0.0000e+00
8.0846e-04 1.8154e-03 0.0000e+00
9.6952e-04 1.8021e-03 0.0000e+00
1.1288e-03 1.7900e-03 0.0000e+00
1.2861e-03 1.7796e-03 0.0000e+00
1.4421e-03 1.7705e-03 0.0000e+00
1.5967e-03 1.7627e-03 0.0000e+00
1.7505e-03 1.7558e-03 0.0000e+00
1.9035e-03 1.7496e-03 0.0000e+00
2.0560e-03 1.7436e-03 0.0000e+00
2.2078e-03 1.7377e-03 0.0000e+00
2.3590e-03 1.7318e-03 0.0000e+00
2.5094e-03 1.7256e-03 0.0000e+00
2.6591e-03 1.7192e-03 0.0000e+00
2.8125e-03 1.7088e-03 0.0000e+00
2.9698e-03 1.6941e-03 0.0000e+00
3.0887e-03 1.7117e-03 0.0000e+00
1.6490e-04 1.9796e-03 0.0000e+00
3.3015e-04 1.9715e-03 0.0000e+00
4.9492e-04 1.9603e-03 0.0000e+00
6.5859e-04 1.9476e-03 0.0000e+00
8.2047e-04 1.9351e-03 0.0000e+00
9.8049e-04 1.9237e-03 0.0000e+00
1.1386e-03 1.9137e-03 0.0000e+00
1.2952e-03 1.9051e-03 0.0000e+00
1.4504e-03 1.8977e-03 0.0000e+00
1.6046e-03 1.8913e-03 0.0000e+00
1.7580e-03 1.8856e-03 0.0000e+00
1.9109e-03 1.8803e-03 0.0000e+00
2.0630e-03 1.8753e-03 0.0000e+00
2.2146e-03 1.8704e-03 0.0000e+00
2.3655e-03 1.8655e-03 0.0000e+00
2.5157e-03 1.8604e-03 0.0000e+00
2.6652e-03 1.8550e-03 0.0000e+00
2.8139e-03 1.8493e-03 0.0000e+00
2.9667e-03 1.8362e-03 0.0000e+00
3.1065e-03 1.8266e-03 0.0000e+00
1.6921e-04 2.0926e-03 0.0000e+00
3.3747e-04 2.0852e-03 0.0000e+00
5.0383e-04 2.0751e-03 0.0000e+00
6.6778e-04 2.0645e-03 0.0000e+00
8.2936e-04 2.0541e-03 0.0000e+00
9.8874e-04 2.0451e-03 0.0000e+00
1.1463e-03 2.0371e-03 0.0000e+00
1.3024e-03 2.0305e-03 0.0000e+00
1.4573e-03 2.0247e-03 0.0000e+00
1.6113e-03 2.0196e-03 0.0000e+00
1.7645e-03 2.0151e-03 0.0000e+00
1.9171e-03 2.0109e-03 0.0000e+00
2.0690e-03 2.0069e-03 0.0000e+00
2.2203e-03 2.0030e-03 0.0000e+00
2.3710e-03 1.9991e-03 0.0000e+00
2.5210e-03 1.9951e-03 0.0000e+00
2.6703e-03 1.9908e-03 0.0000e+00
2.8188e-03 1.9863e-03 0.0000e+00
2.9653e-03 1.9815e-03 0.0000e+00
3.1082e-03 1.9730e-03 0.0000e+00
1.7199e-04 2.2015e-03 0.0000e+00
3.4219e-04 2.1956e-03 0.0000e+00
5.0962e-04 2.1881e-03 0.0000e+00
6.7403e-04 2.1801e-03 0.0000e+00
8.3563e-04 2.1726e-03 0.0000e+00
9.9490e-04 2.1660e-03 0.0000e+00
1.1523e-03 2.1604e-03 0.0000e+00
1.3082e-03 2.1555e-03 0.0000e+00
1.4629e-03 2.1514e-03 0.0000e+00
1.6168e-03 2.1477e-03 0.0000e+00
1.7698e-03 2.1444e-03 0.0000e+00
1.9221e-03 2.1413e-03 0.0000e+00
2.0739e-03 2.1384e-03 0.0000e+00
2.2250e-03 2.1356e-03 0.0000e+00
2.3754e-03 2.1327e-03 0.0000e+00
2.5253e-03 2.1297e-03 0.0000e+00
2.6744e-03 2.1265e-03 0.0000e+00
2.8229e-03 2.1231e-03 0.0000e+00
2.9699e-03 2.1195e-03 0.0000e+00
3.1136e-03 2.1157e-03 0.0000e+00
1.7359e-04 2.3077e-03 0.0000e+00
3.4492e-04 2.3042e-03 0.0000e+00
5.1314e-04 2.2996e-03 0.0000e+00
6.7803e-04 2.2949e-03 0.0000e+00
8.3989e-04 2.2904e-03 0.0000e+00
9.9925e-04 2.2865e-03 0.0000e+00
1.1566e-03 2.2831e-03 0.0000e+00
1.3125e-03 2.2803e-03 0.0000e+00
1.4672e-03 2.2778e-03 0.0000e+00
1.6209e-03 2.2756e-03 0.0000e+00
1.7738e-03 2.2736e-03 0.0000e+00
1.9260e-03 2.2717e-03 0.0000e+00
2.0775e-03 2.2699e-03 0.0000e+00
2.2285e-03 2.2681e-03 0.0000e+00
2.3788e-03 2.2663e-03 0.0000e+00
2.5285e-03 2.2643e-03 0.0000e+00
2.6776e-03 2.2622e-03 0.0000e+00
2.8259e-03 2.2600e-03 0.0000e+00
2.9733e-03 2.2575e-03 0.0000e+00
3.1195e-03 2.2550e-03 0.0000e+00
1.7443e-04 2.4126e-03 0.0000e+00
3.4638e-04 2.4115e-03 0.0000e+00
5.1513e-04 2.4103e-03 0.0000e+00
6.8041e-04 2.4089e-03 0.0000e+00
8.4255e-04 2.4077e-03 0.0000e+00
1.0021e-03 2.4066e-03 0.0000e+00
1.1595e-03 2.4056e-03 0.0000e+00
1.3154e-03 2.4048e-03 0.0000e+00
1.4700e-03 2.4040e-03 0.0000e+00
1.6236e-03 2.4033e-03 0.0000e+00
1.7764e-03 2.4026e-03 0.0000e+00
1.9285e-03 2.4020e-03 0.0000e+00
2.0800e-03 2.4013e-03 0.0000e+00
2.2308e-03 2.4006e-03 0.0000e+00
2.3810e-03 2.3998e-03 0.0000e+00
2.5306e-03 2.3989e-03 0.0000e+00
2.6796e-03 2.3979e-03 0.0000e+00
2.8278e-03 2.3968e-03 0.0000e+00
2.9755e-03 2.3956e-03 0.0000e+00
3.1229e-03 2.3943e-03 0.0000e+00
1.7473e-04 2.5167e-03 0.0000e+00
3.4701e-04 2.5184e-03 0.0000e+00
5.1601e-04 2.5204e-03 0.0000e+00
6.8154e-04 2.5226e-03 0.0000e+00
8.4381e-04 2.5246e-03 0.0000e+00
1.0034e-03 2.5264e-03 0.0000e+00
1.1609e-03 2.5279e-03 0.0000e+00
1.3168e-03 2.5291e-03 0.0000e+00
1.4714e-03 2.5301e-03 0.0000e+00
1.6250e-03 2.5310e-03 0.0000e+00
1.7777e-03 2.5317e-03 0.0000e+00
1.9297e-03 2.5322e-03 0.0000e+00
2.0811e-03 2.5327e-03 0.0000e+00
2.2319e-03 2.5330e-03 0.0000e+00
2.3821e-03 2.5333e-03 0.0000e+00
2.5316e-03 2.5335e-03 0.0000e+00
2.6805e-03 2.5336e-03 0.0000e+00
2.8287e-03 2.5337e-03 0.0000e+00
2.9764e-03 2.5337e-03 0.0000e+00
3.1239e-03 2.5336e-03 0.0000e+00
1.7453e-04 2.6209e-03 0.0000e+00
3.4673e-04 2.6249e-03 0.0000e+00
5.1579e-04 2.6304e-03 0.0000e+00
6.8129e-04 2.6360e-03 0.0000e+00
8.4366e-04 2.6414e-03 0.0000e+00
1.0033e-03 2.6460e-03 0.0000e+00
1.1608e-03 2.6501e-03 0.0000e+00
1.3167e-03 2.6534e-03 0.0000e+00
1.4713e-03 2.6562e-03 0.0000e+00
1.6248e-03 2.6586e-03 0.0000e+00
1.7776e-03 2.6607e-03 0.0000e+00
1.9296e-03 2.6625e-03 0.0000e+00
2.0810e-03 2.6641e-03 0.0000e+00
2.2317e-03 2.6655e-03 0.0000e+00
2.3819e-03 2.6668e-03 0.0000e+00
2.5315e-03 2.6681e-03 0.0000e+00
2.6804e-03 2.6693e-03 0.0000e+00
2.8286e-03 2.6706e-03 0.0000e+00
2.9796e-03 2.6752e-03 0.0000e+00
3.1223e-03 2.6686e-03 0.0000e+00
1.7347e-04 2.7254e-03 0.0000e+00
3.4518e-04 2.7321e-03 0.0000e+00
5.1386e-04 2.7405e-03 0.0000e+00
6.7936e-04 2.7497e-03 0.0000e+00
8.4166e-04 2.7581e-03 0.0000e+00
1.0014e-03 2.7658e-03 0.0000e+00
1.1590e-03 2.7722e-03 0.0000e+00
1.3150e-03 2.7778e-03 0.0000e+00
1.4696e-03 2.7823e-03 0.0000e+00
1.6233e-03 2.7863e-03 0.0000e+00
1.7760e-03 2.7897e-03 0.0000e+00
1.9281e-03 2.7927e-03 0.0000e+00
2.0795e-03 2.7954e-03 0.0000e+00
2.2304e-03 2.7980e-03 0.0000e+00
2.3806e-03 2.8004e-03 0.0000e+00
2.5302e-03 2.8027e-03 0.0000e+00
2.6791e-03 2.8051e-03 0.0000e+00
2.8346e-03 2.8144e-03 0.0000e+00
2.9853e-03 2.8170e-03 0.0000e+00
3.1228e-03 2.7984e-03 0.0000e+00
1.7122e-04 2.8320e-03 0.0000e+00
3.4139e-04 2.8401e-03 0.0000e+00
5.0952e-04 2.8515e-03 0.0000e+00
6.7477e-04 2.8634e-03 0.0000e+00
8.3742e-04 2.8752e-03 0.0000e+00
9.9739e-04 2.8855e-03 0.0000e+00
1.1554e-03 2.8946e-03 0.0000e+00
1.3115e-03 2.9021e-03 0.0000e+00
1.4664e-03 2.9085e-03 0.0000e+00
1.6201e-03 2.9140e-03 0.0000e+00
1.7731e-03 2.9188e-03 0.0000e+00
1.9253e-03 2.9230e-03 0.0000e+00
2.0769e-03 2.9268e-03 0.0000e+00
2.2278e-03 2.9305e-03 0.0000e+00
2.3781e-03 2.9339e-03 0.0000e+00
2.5278e-03 2.9374e-03 0.0000e+00
2.6841e-03 2.9477e-03 0.0000e+00
2.8323e-03 2.9514e-03 0.0000e+00
2.9616e-03 2.9374e-03 0.0000e+00
3.1154e-03 2.9516e-03 0.0000e+00
1.6718e-04 2.9419e-03 0.0000e+00
3.3479e-04 2.9511e-03 0.0000e+00
5.0150e-04 2.9635e-03 0.0000e+00
6.6692e-04 2.9781e-03 0.0000e+00
8.2996e-04 2.9921e-03 0.0000e+00
9.9093e-04 3.0054e-03 0.0000e+00
1.1495e-03 3.0166e-03 0.0000e+00
1.3064e-03 3.0265e-03 0.0000e+00
1.4615e-03 3.0347e-03 0.0000e+00
1.6157e-03 3.0418e-03 0.0000e+00
1.7687e-03 3.0479e-03 0.0000e+00
1.9212e-03 3.0533e-03 0.0000e+00
2.0729e-03 3.0583e-03 0.0000e+00
2.2240e-03 3.0630e-03 0.0000e+00
2.3745e-03 3.0675e-03 0.0000e+00
2.5279e-03 3.0755e-03 0.0000e+00
2.6805e-03 3.0870e-03 0.0000e+00
2.8108e-03 3.0707e-03 0.0000e+00
2.9691e-03 3.0861e-03 0.0000e+00
3.1094e-03 3.0909e-03 0.0000e+00
1.6186e-04 3.0587e-03 0.0000e+00
3.2500e-04 3.0661e-03 0.0000e+00
4.8972e-04 3.0786e-03 0.0000e+00
6.5460e-04 3.0932e-03 0.0000e+00
8.1895e-04 3.1096e-03 0.0000e+00
9.8102e-04 3.1247e-03 0.0000e+00
1.1412e-03 3.1388e-03 0.0000e+00
1.2989e-03 3.1506e-03 0.0000e+00
1.4551e-03 3.1609e-03 0.0000e+00
1.6096e-03 3.1696e-03 0.0000e+00
1.7632e-03 3.1771e-03 0.0000e+00
1.9158e-03 3.1837e-03 0.0000e+00
2.0678e-03 3.1898e-03 0.0000e+00
2.2190e-03 3.1956e-03 0.0000e+00
2.3698e-03 3.2011e-03 0.0000e+00
2.5150e-03 3.2066e-03 0.0000e+00
2.6577e-03 3.2120e-03 0.0000e+00
2.8173e-03 3.2183e-03 0.0000e+00
2.9619e-03 3.2213e-03 0.0000e+00
3.0930e-03 3.2576e-03 0.0000e+00
1.5617e-04 3.1832e-03 0.0000e+00
3.1411e-04 3.1888e-03 0.0000e+00
4.7469e-04 3.1975e-03 0.0000e+00
6.3843e-04 3.2111e-03 0.0000e+00
8.0304e-04 3.2268e-03 0.0000e+00
9.6745e-04 3.2441e-03 0.0000e+00
1.1294e-03 3.2599e-03 0.0000e+00
1.2893e-03 3.2745e-03 0.0000e+00
1.4465e-03 3.2867e-03 0.0000e+00
1.6023e-03 3.2974e-03 0.0000e+00
1.7562e-03 3.3063e-03 0.0000e+00
1.9094e-03 3.3143e-03 0.0000e+00
2.0614e-03 3.3214e-03 0.0000e+00
2.2131e-03 3.3282e-03 0.0000e+00
2.3638e-03 3.3349e-03 0.0000e+00
2.5180e-03 3.3383e-03 0.0000e+00
2.6713e-03 3.3385e-03 0.0000e+00
2.8004e-03 3.3650e-03 0.0000e+00
2.9778e-03 3.3635e-03 0.0000e+00
1.5189e-04 3.3169e-03 0.0000e+00
3.0496e-04 3.3193e-03 0.0000e+00
4.6050e-04 3.3247e-03 0.0000e+00
6.1955e-04 3.3330e-03 0.0000e+00
7.8312e-04 3.3465e-03 0.0000e+00
9.4844e-04 3.3625e-03 0.0000e+00
1.1137e-03 3.3806e-03 0.0000e+00
1.2759e-03 3.3971e-03 0.0000e+00
1.4359e-03 3.4121e-03 0.0000e+00
1.5928e-03 3.4246e-03 0.0000e+00
1.7482e-03 3.4356e-03 0.0000e+00
1.9016e-03 3.4448e-03 0.0000e+00
2.0543e-03 3.4532e-03 0.0000e+00
2.2059e-03 3.4610e-03 0.0000e+00
2.3571e-03 3.4686e-03 0.0000e+00
2.5073e-03 3.4764e-03 0.0000e+00
2.6648e-03 3.4779e-03 0.0000e+00
2.8148e-03 3.4861e-03 0.0000e+00
2.9474e-03 3.5137e-03 0.0000e+00
1.4968e-04 3.4564e-03 0.0000e+00
2.9971e-04 3.4575e-03 0.0000e+00
4.5087e-04 3.4596e-03 0.0000e+00
6.0445e-04 3.4638e-03 0.0000e+00
7.6198e-04 3.4707e-03 0.0000e+00
9.2538e-04 3.4833e-03 0.0000e+00
1.0917e-03 3.4995e-03 0.0000e+00
1.2583e-03 3.5185e-03 0.0000e+00
1.4212e-03 3.5356e-03 0.0000e+00
1.5815e-03 3.5512e-03 0.0000e+00
1.7382e-03 3.5642e-03 0.0000e+00
1.8931e-03 3.5754e-03 0.0000e+00
2.0460e-03 3.5851e-03 0.0000e+00
2.1982e-03 3.5940e-03 0.0000e+00
2.3493e-03 3.6027e-03 0.0000e+00
2.4999e-03 3.6113e-03 0.0000e+00
2.6496e-03 3.6204e-03 0.0000e+00
2.8086e-03 3.6233e-03 0.0000e+00
2.9710e-03 3.6332e-03 0.0000e+00
1.4876e-04 3.5994e-03 0.0000e+00
2.9754e-04 3.5997e-03 0.0000e+00
4.4672e-04 3.6007e-03 0.0000e+00
5.9674e-04 3.6020e-03 0.0000e+00
7.4852e-04 3.6048e-03 0.0000e+00
9.0378e-04 3.6101e-03 0.0000e+00
1.0659e-03 3.6212e-03 0.0000e+00
1.2331e-03 3.6372e-03 0.0000e+00
1.4016e-03 3.6573e-03 0.0000e+00
1.5656e-03 3.6754e-03 0.0000e+00
1.7263e-03 3.6918e-03 0.0000e+00
1.8828e-03 3.7054e-03 0.0000e+00
2.0372e-03 3.7170e-03 0.0000e+00
2.1895e-03 3.7273e-03 0.0000e+00
2.3411e-03 3.7369e-03 0.0000e+00
2.4916e-03 3.7466e-03 0.0000e+00
2.6415e-03 3.7564e-03 0.0000e+00
2.7972e-03 3.7742e-03 0.0000e+00
2.9510e-03 3.7860e-03 0.0000e+00
1.4827e-04 3.7435e-03 0.0000e+00
2.9660e-04 3.7438e-03 0.0000e+00
4.4508e-04 3.7441e-03 0.0000e+00
5.9383e-04 3.7448e-03 0.0000e+00
7.4305e-04 3.7456e-03 0.0000e+00
8.9335e-04 3.7474e-03 0.0000e+00
1.0463e-03 3.7510e-03 0.0000e+00
1.2059e-03 3.7602e-03 0.0000e+00
1.3732e-03 3.7755e-03 0.0000e+00
1.5438e-03 3.7968e-03 0.0000e+00
1.7092e-03 3.8163e-03 0.0000e+00
1.8706e-03 3.8339e-03 0.0000e+00
2.0268e-03 3.8484e-03 0.0000e+00
2.1805e-03 3.8605e-03 0.0000e+00
2.3320e-03 3.8716e-03 0.0000e+00
2.4829e-03 3.8820e-03 0.0000e+00
2.6363e-03 3.8967e-03 0.0000e+00
2.7882e-03 3.9149e-03 0.0000e+00
2.9144e-03 3.9042e-03 0.0000e+00
1.4799e-04 3.8885e-03 0.0000e+00
2.9604e-04 3.8886e-03 0.0000e+00
4.4416e-04 3.8888e-03 0.0000e+00
5.9237e-04 3.8890e-03 0.0000e+00
7.4076e-04 3.8895e-03 0.0000e+00
8.8945e-04 3.8900e-03 0.0000e+00
1.0388e-03 3.8911e-03 0.0000e+00
1.1898e-03 3.8934e-03 0.0000e+00
1.3464e-03 3.9004e-03 0.0000e+00
1.5125e-03 3.9144e-03 0.0000e+00
1.6852e-03 3.9368e-03 0.0000e+00
1.8523e-03 3.9585e-03 0.0000e+00
2.0144e-03 3.9779e-03 0.0000e+00
2.1701e-03 3.9935e-03 0.0000e+00
2.3230e-03 4.0063e-03 0.0000e+00
2.4736e-03 4.0182e-03 0.0000e+00
2.6191e-03 4.0291e-03 0.0000e+00
2.7665e-03 4.0413e-03 0.0000e+00
2.9180e-03 4.0510e-03 0.0000e+00
1.4783e-04 4.0338e-03 0.0000e+00
2.9567e-04 4.0339e-03 0.0000e+00
4.4353e-04 4.0340e-03 0.0000e+00
5.9144e-04 4.0342e-03 0.0000e+00
7.3943e-04 4.0343e-03 0.0000e+00
8.8756e-04 4.0347e-03 0.0000e+00
1.0359e-03 4.0350e-03 0.0000e+00
1.1846e-03 4.0357e-03 0.0000e+00
1.3343e-03 4.0369e-03 0.0000e+00
1.4879e-03 4.0417e-03 0.0000e+00
1.6515e-03 4.0541e-03 0.0000e+00
1.8258e-03 4.0776e-03 0.0000e+00
1.9950e-03 4.1023e-03 0.0000e+00
2.1578e-03 4.1240e-03 0.0000e+00
2.3128e-03 4.1410e-03 0.0000e+00
2.4645e-03 4.1543e-03 0.0000e+00
2.6221e-03 4.1641e-03 0.0000e+00
2.7915e-03 4.1676e-03 0.0000e+00
1.4769e-04 4.1795e-03 0.0000e+00
2.9539e-04 4.1795e-03 0.0000e+00
4.4308e-04 4.1796e-03 0.0000e+00
5.9082e-04 4.1797e-03 0.0000e+00
7.3858e-04 4.1799e-03 0.0000e+00
8.8640e-04 4.1799e-03 0.0000e+00
1.0343e-03 4.1802e-03 0.0000e+00
1.1823e-03 4.1803e-03 0.0000e+00
1.3305e-03 4.1808e-03 0.0000e+00
1.4793e-03 4.1814e-03 0.0000e+00
1.6306e-03 4.1845e-03 0.0000e+00