# vtk DataFile Version 3.0
VTK Example
ASCII
DATASET UNSTRUCTURED_GRID
POINTS 827 float 
0.000147358 0.000144962 0.0
0.000294066 0.000144771 0.0
0.000441559 0.000144682 0.0
0.000588841 0.000144735 0.0
0.000736113 0.000144738 0.0
0.000883351 0.00014474 0.0
0.0010306 0.000144743 0.0
0.00117783 0.000144738 0.0
0.00132507 0.000144745 0.0
0.00147229 0.000144742 0.0
0.0016195 0.00014477 0.0
0.00176673 0.000144694 0.0
0.001914 0.00014478 0.0
0.00206112 0.000144817 0.0
0.00220818 0.000144794 0.0
0.00235556 0.000144357 0.0
0.00250563 0.000142341 0.0
0.00266068 0.000136844 0.0
0.00283865 0.000115171 0.0
0.00299606 0.000109328 0.0
0.000147547 0.000289731 0.0
0.00029442 0.00029025 0.0
0.000442077 0.000290439 0.0
0.000589533 0.000290451 0.0
0.000736976 0.000290486 0.0
0.000884403 0.000290494 0.0
0.00103182 0.000290498 0.0
0.00117924 0.000290507 0.0
0.00132665 0.000290518 0.0
0.00147405 0.000290543 0.0
0.00162147 0.000290564 0.0
0.00176879 0.000290594 0.0
0.001916 0.000290656 0.0
0.00206361 0.000290511 0.0
0.00221324 0.000288664 0.0
0.00236782 0.000284557 0.0
0.0025306 0.000276515 0.0
0.00270608 0.000260149 0.0
0.00288588 0.00022786 0.0
0.00303619 0.00019689 0.0
0.000147449 0.000436269 0.0
0.000295124 0.000436217 0.0
0.000442612 0.000436314 0.0
0.000590271 0.00043637 0.0
0.000737877 0.000436395 0.0
0.000885486 0.000436411 0.0
0.00103308 0.000436426 0.0
0.00118067 0.000436431 0.0
0.00132827 0.000436452 0.0
0.00147584 0.000436495 0.0
0.00162334 0.000436567 0.0
0.00177106 0.000436438 0.0
0.00192044 0.000435026 0.0
0.00207535 0.000430126 0.0
0.00223749 0.000423095 0.0
0.00240576 0.00041157 0.0
0.00257841 0.000396532 0.0
0.0027522 0.00037296 0.0
0.00291804 0.000346076 0.0
0.00308096 0.000312691 0.0
0.00319982 0.000335465 0.0
0.00014774 0.000582047 0.0
0.000295421 0.000582128 0.0
0.00044323 0.000582119 0.0
0.000590975 0.000582155 0.0
0.000738798 0.00058215 0.0
0.000886617 0.000582179 0.0
0.00103446 0.000582159 0.0
0.00118233 0.000582162 0.0
0.00133021 0.000582166 0.0
0.00147825 0.000582056 0.0
0.00162745 0.000581137 0.0
0.00178118 0.000576946 0.0
0.00194343 0.00056863 0.0
0.00211061 0.000558715 0.0
0.0022794 0.000546012 0.0
0.00244792 0.000532159 0.0
0.0026143 0.00051496 0.0
0.00277465 0.000497752 0.0
0.00293098 0.000479127 0.0
0.00307984 0.000461467 0.0
0.00321105 0.000452535 0.0
0.000147928 0.00072767 0.0
0.000295879 0.000727591 0.0
0.000443849 0.000727579 0.0
0.000591951 0.000727512 0.0
0.000740065 0.000727482 0.0
0.000888312 0.000727364 0.0
0.0010366 0.000727385 0.0
0.001185 0.000727153 0.0
0.00133428 0.00072643 0.0
0.00148696 0.000723175 0.0
0.00164766 0.000715473 0.0
0.0018157 0.000704678 0.0
0.00198307 0.000692847 0.0
0.00214955 0.000680726 0.0
0.00231399 0.00066854 0.0
0.00247607 0.000655049 0.0
0.00263417 0.000641927 0.0
0.00278899 0.000628829 0.0
0.00294126 0.000615448 0.0
0.00309243 0.000600755 0.0
0.00324702 0.000578104 0.0
0.0033609 0.000605966 0.0
0.000148236 0.000872616 0.0
0.000296552 0.000872574 0.0
0.000444966 0.00087236 0.0
0.0005935 0.000872173 0.0
0.000742221 0.000871979 0.0
0.000891013 0.000871729 0.0
0.00104057 0.000870946 0.0
0.00119256 0.000868684 0.0
0.00135142 0.000861474 0.0
0.00151877 0.000851453 0.0
0.00168743 0.000838524 0.0
0.00185261 0.00082721 0.0
0.0020163 0.000815894 0.0
0.0021774 0.000805179 0.0
0.00233675 0.000794196 0.0
0.00249326 0.00078364 0.0
0.00264759 0.000773134 0.0
0.00279939 0.000762964 0.0
0.00294948 0.00075298 0.0
0.00309882 0.000741109 0.0
0.00324387 0.000728949 0.0
0.00337 0.000723858 0.0
0.000148787 0.00101683 0.0
0.000297697 0.00101648 0.0
0.000446777 0.00101621 0.0
0.00059603 0.00101566 0.0
0.000745879 0.00101488 0.0
0.000897719 0.00101283 0.0
0.00105481 0.00100707 0.0
0.00122068 0.000997171 0.0
0.00138971 0.000984907 0.0
0.00155586 0.000971964 0.0
0.0017189 0.000961605 0.0
0.00188018 0.000951137 0.0
0.0020391 0.000941742 0.0
0.00219662 0.000932315 0.0
0.00235194 0.000923515 0.0
0.00250574 0.000914873 0.0
0.00265765 0.000906521 0.0
0.00280821 0.000898259 0.0
0.00295725 0.000889968 0.0
0.00310601 0.000880845 0.0
0.0032537 0.000869957 0.0
0.00340614 0.000849175 0.0
0.0035161 0.000877969 0.0
0.000149878 0.00115951 0.0
0.000299587 0.00115906 0.0
0.000449922 0.00115797 0.0
0.000601811 0.00115617 0.0
0.00075782 0.00115112 0.0
0.000921242 0.00114248 0.0
0.00109008 0.00113005 0.0
0.00125708 0.00111714 0.0
0.00142117 0.00110535 0.0
0.00158244 0.00109546 0.0
0.00174189 0.00108592 0.0
0.00189947 0.00107761 0.0
0.00205573 0.00106937 0.0
0.0022102 0.00106188 0.0
0.00236349 0.00105459 0.0
0.00251528 0.0010477 0.0
0.00266601 0.0010409 0.0
0.00281548 0.00103415 0.0
0.00296393 0.00102741 0.0
0.00311126 0.00102064 0.0
0.00325985 0.0010112 0.0
0.00340745 0.00100352 0.0
0.00355359 0.000989805 0.0
0.000151976 0.00129953 0.0
0.000304349 0.00129789 0.0
0.000459593 0.0012939 0.0
0.000620921 0.0012859 0.0
0.000787938 0.00127482 0.0
0.000955872 0.00126092 0.0
0.00112103 0.00124873 0.0
0.0012837 0.0012376 0.0
0.00144365 0.00122836 0.0
0.00160201 0.00121977 0.0
0.00175861 0.0012123 0.0
0.00191396 0.00120514 0.0
0.00206785 0.00119877 0.0
0.0022207 0.0011926 0.0
0.00237231 0.0011869 0.0
0.00252304 0.00118132 0.0
0.00267272 0.00117591 0.0
0.00282156 0.0011705 0.0
0.00296943 0.00116509 0.0
0.00311645 0.00115967 0.0
0.00326391 0.00115512 0.0
0.00341364 0.00114992 0.0
0.00357704 0.00115771 0.0
0.000157887 0.00143166 0.0
0.000318199 0.00142694 0.0
0.000483104 0.0014168 0.0
0.000650533 0.00140397 0.0
0.000817555 0.00139021 0.0
0.000981865 0.00137857 0.0
0.00114357 0.0013681 0.0
0.00130279 0.00135972 0.0
0.00146043 0.00135202 0.0
0.00161636 0.00134552 0.0
0.00177112 0.00133939 0.0
0.00192457 0.00133404 0.0
0.00207709 0.00132892 0.0
0.00222856 0.0013243 0.0
0.00237924 0.00131981 0.0
0.00252903 0.00131555 0.0
0.00267811 0.00131134 0.0
0.00282636 0.00130717 0.0
0.00297387 0.00130299 0.0
0.00312055 0.00129879 0.0
0.00326575 0.00129469 0.0
0.00341315 0.00129059 0.0
0.00354989 0.00128723 0.0
0.000168011 0.00155081 0.0
0.000337434 0.00154167 0.0
0.000507065 0.0015295 0.0
0.000674701 0.00151639 0.0
0.000838969 0.00150554 0.0
0.00100047 0.00149611 0.0
0.00115948 0.00148876 0.0
0.00131673 0.00148215 0.0
0.00147234 0.00147678 0.0
0.00162678 0.00147176 0.0
0.00178 0.00146751 0.0
0.00193233 0.00146345 0.0
0.00208372 0.00145989 0.0
0.00223439 0.00145643 0.0
0.00238429 0.00145326 0.0
0.00253355 0.00145012 0.0
0.00268209 0.00144709 0.0
0.00282999 0.00144406 0.0
0.00297716 0.00144104 0.0
0.00312365 0.00143804 0.0
0.00327045 0.00143414 0.0
0.00341649 0.00142952 0.0
0.00357273 0.00141503 0.0
0.00367681 0.00144522 0.0
0.000177712 0.00165566 0.0
0.000353358 0.00164745 0.0
0.00052447 0.001637 0.0
0.000690739 0.00162814 0.0
0.000853192 0.00162039 0.0
0.00101268 0.00161457 0.0
0.00117011 0.00160945 0.0
0.00132584 0.00160549 0.0
0.00148027 0.0016018 0.0
0.00163353 0.00159883 0.0
0.00178589 0.00159595 0.0
0.00193737 0.00159352 0.0
0.00208814 0.00159114 0.0
0.00223822 0.00158904 0.0
0.00238768 0.00158694 0.0
0.00253652 0.00158499 0.0
0.00268477 0.00158304 0.0
0.00283238 0.00158112 0.0
0.00297937 0.00157923 0.0
0.00312569 0.00157732 0.0
0.00327134 0.00157551 0.0
0.00341829 0.00157103 0.0
0.00356051 0.00156677 0.0
0.00369595 0.00155706 0.0
0.000183194 0.00175258 0.0
0.000362051 0.00174794 0.0
0.000533562 0.0017434 0.0
0.000699149 0.00173896 0.0
0.000860566 0.0017358 0.0
0.00101912 0.00173287 0.0
0.00117563 0.00173086 0.0
0.00133059 0.00172888 0.0
0.00148432 0.00172748 0.0
0.00163703 0.00172601 0.0
0.00178888 0.00172491 0.0
0.00193996 0.00172372 0.0
0.00209038 0.00172277 0.0
0.00224017 0.00172176 0.0
0.00238938 0.00172088 0.0
0.00253802 0.00171997 0.0
0.0026861 0.00171913 0.0
0.00283358 0.00171829 0.0
0.00298046 0.00171747 0.0
0.0031267 0.0017167 0.0
0.00327231 0.00171592 0.0
0.00341657 0.00171526 0.0
0.00356068 0.00171461 0.0
0.00368999 0.00171415 0.0
0.000183801 0.00184582 0.0
0.000363029 0.00184751 0.0
0.000534601 0.00184873 0.0
0.000700129 0.00185017 0.0
0.0008614 0.00185081 0.0
0.00101985 0.0018517 0.0
0.0011762 0.00185208 0.0
0.00133106 0.00185275 0.0
0.00148466 0.00185305 0.0
0.00163732 0.00185356 0.0
0.00178908 0.0018538 0.0
0.00194014 0.00185419 0.0
0.00209049 0.00185438 0.0
0.00224026 0.00185467 0.0
0.00238942 0.00185484 0.0
0.00253806 0.00185507 0.0
0.00268609 0.00185526 0.0
0.00283358 0.0018555 0.0
0.00298043 0.00185576 0.0
0.00312669 0.00185605 0.0
0.00327228 0.00185639 0.0
0.00341915 0.0018594 0.0
0.00356095 0.00186248 0.0
0.00370071 0.0018721 0.0
0.000179793 0.00194144 0.0
0.000356548 0.00194739 0.0
0.000527808 0.00195497 0.0
0.000693754 0.00196101 0.0
0.000855814 0.00196632 0.0
0.00101487 0.00197012 0.0
0.0011719 0.00197365 0.0
0.00132721 0.00197627 0.0
0.00148136 0.00197885 0.0
0.00163437 0.00198083 0.0
0.00178655 0.00198285 0.0
0.00193785 0.00198446 0.0
0.00208852 0.00198609 0.0
0.00223845 0.00198745 0.0
0.00238785 0.00198884 0.0
0.00253658 0.0019901 0.0
0.00268479 0.0019914 0.0
0.00283234 0.00199269 0.0
0.00297932 0.00199402 0.0
0.00312562 0.00199542 0.0
0.0032722 0.0019977 0.0
0.00341666 0.0020009 0.0
0.00357214 0.00201564 0.0
0.00367569 0.00198601 0.0
0.000171544 0.00204315 0.0
0.000343097 0.00205159 0.0
0.000513053 0.00206205 0.0
0.000680129 0.0020728 0.0
0.000843626 0.00208134 0.0
0.0010043 0.0020889 0.0
0.00116248 0.00209466 0.0
0.0013191 0.00209991 0.0
0.00147418 0.00210409 0.0
0.00162822 0.00210813 0.0
0.00178107 0.00211145 0.0
0.00193317 0.00211469 0.0
0.00208432 0.00211746 0.0
0.00223484 0.00212018 0.0
0.00238454 0.00212263 0.0
0.00253369 0.00212507 0.0
0.0026821 0.00212742 0.0
0.00282994 0.00212981 0.0
0.00297706 0.00213224 0.0
0.00312356 0.0021347 0.0
0.00326819 0.00213722 0.0
0.0034179 0.00214242 0.0
0.0035491 0.00214397 0.0
0.00369443 0.00214025 0.0
0.000161493 0.00215722 0.0
0.000324949 0.00216294 0.0
0.000491457 0.00217336 0.0
0.000658894 0.00218495 0.0
0.000824847 0.00219702 0.0
0.000987596 0.00220703 0.0
0.00114802 0.00221583 0.0
0.0013063 0.00222274 0.0
0.00146314 0.00222929 0.0
0.00161839 0.00223466 0.0
0.00177271 0.00223986 0.0
0.00192574 0.00224431 0.0
0.00207798 0.00224864 0.0
[...]
POINT_DATA 827
VECTORS Position float
1.4736e-04 1.4496e-04 0.0000e+00
2.9407e-04 1.4477e-04 0.0000e+00
4.4156e-04 1.4468e-04 0.0000e+00
5.8884e-04 1.4473e-04 0.0000e+00
7.3611e-04 1.4474e-04 0.0000e+00
8.8335e-04 1.4474e-04 0.0000e+00
1.0306e-03 1.4474e-04 0.0000e+00
1.1778e-03 1.4474e-04 0.0000e+00
1.3251e-03 1.4474e-04 0.0000e+00
1.4723e-03 1.4474e-04 0.0000e+00
1.6195e-03 1.4477e-04 0.0000e+00
1.7667e-03 1.4469e-04 0.0000e+00
1.9140e-03 1.4478e-04 0.0000e+00
2.0611e-03 1.4482e-04 0.0000e+00
2.2082e-03 1.4479e-04 0.0000e+00
2.3556e-03 1.4436e-04 0.0000e+00
2.5056e-03 1.4234e-04 0.0000e+00
2.6607e-03 1.3684e-04 0.0000e+00
2.8386e-03 1.1517e-04 0.0000e+00
2.9961e-03 1.0933e-04 0.0000e+00
1.4755e-04 2.8973e-04 0.0000e+00
2.9442e-04 2.9025e-04 0.0000e+00
4.4208e-04 2.9044e-04 0.0000e+00
5.8953e-04 2.9045e-04 0.0000e+00
7.3698e-04 2.9049e-04 0.0000e+00
8.8440e-04 2.9049e-04 0.0000e+00
1.0318e-03 2.9050e-04 0.0000e+00
1.1792e-03 2.9051e-04 0.0000e+00
1.3266e-03 2.9052e-04 0.0000e+00
1.4740e-03 2.9054e-04 0.0000e+00
1.6215e-03 2.9056e-04 0.0000e+00
1.7688e-03 2.9059e-04 0.0000e+00
1.9160e-03 2.9066e-04 0.0000e+00
2.0636e-03 2.9051e-04 0.0000e+00
2.2132e-03 2.8866e-04 0.0000e+00
2.3678e-03 2.8456e-04 0.0000e+00
2.5306e-03 2.7652e-04 0.0000e+00
2.7061e-03 2.6015e-04 0.0000e+00
2.8859e-03 2.2786e-04 0.0000e+00
3.0362e-03 1.9689e-04 0.0000e+00
1.4745e-04 4.3627e-04 0.0000e+00
2.9512e-04 4.3622e-04 0.0000e+00
4.4261e-04 4.3631e-04 0.0000e+00
5.9027e-04 4.3637e-04 0.0000e+00
7.3788e-04 4.3640e-04 0.0000e+00
8.8549e-04 4.3641e-04 0.0000e+00
1.0331e-03 4.3643e-04 0.0000e+00
1.1807e-03 4.3643e-04 0.0000e+00
1.3283e-03 4.3645e-04 0.0000e+00
1.4758e-03 4.3650e-04 0.0000e+00
1.6233e-03 4.3657e-04 0.0000e+00
1.7711e-03 4.3644e-04 0.0000e+00
1.9204e-03 4.3503e-04 0.0000e+00
2.0754e-03 4.3013e-04 0.0000e+00
2.2375e-03 4.2310e-04 0.0000e+00
2.4058e-03 4.1157e-04 0.0000e+00
2.5784e-03 3.9653e-04 0.0000e+00
2.7522e-03 3.7296e-04 0.0000e+00
2.9180e-03 3.4608e-04 0.0000e+00
3.0810e-03 3.1269e-04 0.0000e+00
3.1998e-03 3.3547e-04 0.0000e+00
1.4774e-04 5.8205e-04 0.0000e+00
2.9542e-04 5.8213e-04 0.0000e+00
4.4323e-04 5.8212e-04 0.0000e+00
5.9097e-04 5.8216e-04 0.0000e+00
7.3880e-04 5.8215e-04 0.0000e+00
8.8662e-04 5.8218e-04 0.0000e+00
1.0345e-03 5.8216e-04 0.0000e+00
1.1823e-03 5.8216e-04 0.0000e+00
1.3302e-03 5.8217e-04 0.0000e+00
1.4783e-03 5.8206e-04 0.0000e+00
1.6275e-03 5.8114e-04 0.0000e+00
1.7812e-03 5.7695e-04 0.0000e+00
1.9434e-03 5.6863e-04 0.0000e+00
2.1106e-03 5.5871e-04 0.0000e+00
2.2794e-03 5.4601e-04 0.0000e+00
2.4479e-03 5.3216e-04 0.0000e+00
2.6143e-03 5.1496e-04 0.0000e+00
2.7747e-03 4.9775e-04 0.0000e+00
2.9310e-03 4.7913e-04 0.0000e+00
3.0798e-03 4.6147e-04 0.0000e+00
3.2110e-03 4.5254e-04 0.0000e+00
1.4793e-04 7.2767e-04 0.0000e+00
2.9588e-04 7.2759e-04 0.0000e+00
4.4385e-04 7.2758e-04 0.0000e+00
5.9195e-04 7.2751e-04 0.0000e+00
7.4006e-04 7.2748e-04 0.0000e+00
8.8831e-04 7.2736e-04 0.0000e+00
1.0366e-03 7.2738e-04 0.0000e+00
1.1850e-03 7.2715e-04 0.0000e+00
1.3343e-03 7.2643e-04 0.0000e+00
1.4870e-03 7.2318e-04 0.0000e+00
1.6477e-03 7.1547e-04 0.0000e+00
1.8157e-03 7.0468e-04 0.0000e+00
1.9831e-03 6.9285e-04 0.0000e+00
2.1496e-03 6.8073e-04 0.0000e+00
2.3140e-03 6.6854e-04 0.0000e+00
2.4761e-03 6.5505e-04 0.0000e+00
2.6342e-03 6.4193e-04 0.0000e+00
2.7890e-03 6.2883e-04 0.0000e+00
2.9413e-03 6.1545e-04 0.0000e+00
3.0924e-03 6.0076e-04 0.0000e+00
3.2470e-03 5.7810e-04 0.0000e+00
3.3609e-03 6.0597e-04 0.0000e+00
1.4824e-04 8.7262e-04 0.0000e+00
2.9655e-04 8.7257e-04 0.0000e+00
4.4497e-04 8.7236e-04 0.0000e+00
5.9350e-04 8.7217e-04 0.0000e+00
7.4222e-04 8.7198e-04 0.0000e+00
8.9101e-04 8.7173e-04 0.0000e+00
1.0406e-03 8.7095e-04 0.0000e+00
1.1926e-03 8.6868e-04 0.0000e+00
1.3514e-03 8.6147e-04 0.0000e+00
1.5188e-03 8.5145e-04 0.0000e+00
1.6874e-03 8.3852e-04 0.0000e+00
1.8526e-03 8.2721e-04 0.0000e+00
2.0163e-03 8.1589e-04 0.0000e+00
2.1774e-03 8.0518e-04 0.0000e+00
2.3367e-03 7.9420e-04 0.0000e+00
2.4933e-03 7.8364e-04 0.0000e+00
2.6476e-03 7.7313e-04 0.0000e+00
2.7994e-03 7.6296e-04 0.0000e+00
2.9495e-03 7.5298e-04 0.0000e+00
3.0988e-03 7.4111e-04 0.0000e+00
3.2439e-03 7.2895e-04 0.0000e+00
3.3700e-03 7.2386e-04 0.0000e+00
1.4879e-04 1.0168e-03 0.0000e+00
2.9770e-04 1.0165e-03 0.0000e+00
4.4678e-04 1.0162e-03 0.0000e+00
5.9603e-04 1.0157e-03 0.0000e+00
7.4588e-04 1.0149e-03 0.0000e+00
8.9772e-04 1.0128e-03 0.0000e+00
1.0548e-03 1.0071e-03 0.0000e+00
1.2207e-03 9.9717e-04 0.0000e+00
1.3897e-03 9.8491e-04 0.0000e+00
1.5559e-03 9.7196e-04 0.0000e+00
1.7189e-03 9.6161e-04 0.0000e+00
1.8802e-03 9.5114e-04 0.0000e+00
2.0391e-03 9.4174e-04 0.0000e+00
2.1966e-03 9.3231e-04 0.0000e+00
2.3519e-03 9.2352e-04 0.0000e+00
2.5057e-03 9.1487e-04 0.0000e+00
2.6576e-03 9.0652e-04 0.0000e+00
2.8082e-03 8.9826e-04 0.0000e+00
2.9572e-03 8.8997e-04 0.0000e+00
3.1060e-03 8.8085e-04 0.0000e+00
3.2537e-03 8.6996e-04 0.0000e+00
3.4061e-03 8.4917e-04 0.0000e+00
3.5161e-03 8.7797e-04 0.0000e+00
1.4988e-04 1.1595e-03 0.0000e+00
2.9959e-04 1.1591e-03 0.0000e+00
4.4992e-04 1.1580e-03 0.0000e+00
6.0181e-04 1.1562e-03 0.0000e+00
7.5782e-04 1.1511e-03 0.0000e+00
9.2124e-04 1.1425e-03 0.0000e+00
1.0901e-03 1.1301e-03 0.0000e+00
1.2571e-03 1.1171e-03 0.0000e+00
1.4212e-03 1.1054e-03 0.0000e+00
1.5824e-03 1.0955e-03 0.0000e+00
1.7419e-03 1.0859e-03 0.0000e+00
1.8995e-03 1.0776e-03 0.0000e+00
2.0557e-03 1.0694e-03 0.0000e+00
2.2102e-03 1.0619e-03 0.0000e+00
2.3635e-03 1.0546e-03 0.0000e+00
2.5153e-03 1.0477e-03 0.0000e+00
2.6660e-03 1.0409e-03 0.0000e+00
2.8155e-03 1.0342e-03 0.0000e+00
2.9639e-03 1.0274e-03 0.0000e+00
3.1113e-03 1.0206e-03 0.0000e+00
3.2599e-03 1.0112e-03 0.0000e+00
3.4075e-03 1.0035e-03 0.0000e+00
3.5536e-03 9.8981e-04 0.0000e+00
1.5198e-04 1.2995e-03 0.0000e+00
3.0435e-04 1.2979e-03 0.0000e+00
4.5959e-04 1.2939e-03 0.0000e+00
6.2092e-04 1.2859e-03 0.0000e+00
7.8794e-04 1.2748e-03 0.0000e+00
9.5587e-04 1.2609e-03 0.0000e+00
1.1210e-03 1.2487e-03 0.0000e+00
1.2837e-03 1.2376e-03 0.0000e+00
1.4437e-03 1.2284e-03 0.0000e+00
1.6020e-03 1.2198e-03 0.0000e+00
1.7586e-03 1.2123e-03 0.0000e+00
1.9140e-03 1.2051e-03 0.0000e+00
2.0679e-03 1.1988e-03 0.0000e+00
2.2207e-03 1.1926e-03 0.0000e+00
2.3723e-03 1.1869e-03 0.0000e+00
2.5230e-03 1.1813e-03 0.0000e+00
2.6727e-03 1.1759e-03 0.0000e+00
2.8216e-03 1.1705e-03 0.0000e+00
2.9694e-03 1.1651e-03 0.0000e+00
3.1165e-03 1.1597e-03 0.0000e+00
3.2639e-03 1.1551e-03 0.0000e+00
3.4136e-03 1.1499e-03 0.0000e+00
3.5770e-03 1.1577e-03 0.0000e+00
1.5789e-04 1.4317e-03 0.0000e+00
3.1820e-04 1.4269e-03 0.0000e+00
4.8310e-04 1.4168e-03 0.0000e+00
6.5053e-04 1.4040e-03 0.0000e+00
8.1756e-04 1.3902e-03 0.0000e+00
9.8186e-04 1.3786e-03 0.0000e+00
1.1436e-03 1.3681e-03 0.0000e+00
1.3028e-03 1.3597e-03 0.0000e+00
1.4604e-03 1.3520e-03 0.0000e+00
1.6164e-03 1.3455e-03 0.0000e+00
1.7711e-03 1.3394e-03 0.0000e+00
1.9246e-03 1.3340e-03 0.0000e+00
2.0771e-03 1.3289e-03 0.0000e+00
2.2286e-03 1.3243e-03 0.0000e+00
2.3792e-03 1.3198e-03 0.0000e+00
2.5290e-03 1.3156e-03 0.0000e+00
2.6781e-03 1.3113e-03 0.0000e+00
2.8264e-03 1.3072e-03 0.0000e+00
2.9739e-03 1.3030e-03 0.0000e+00
3.1206e-03 1.2988e-03 0.0000e+00
3.2658e-03 1.2947e-03 0.0000e+00
3.4132e-03 1.2906e-03 0.0000e+00
3.5499e-03 1.2872e-03 0.0000e+00
1.6801e-04 1.5508e-03 0.0000e+00
3.3743e-04 1.5417e-03 0.0000e+00
5.0707e-04 1.5295e-03 0.0000e+00
6.7470e-04 1.5164e-03 0.0000e+00
8.3897e-04 1.5055e-03 0.0000e+00
1.0005e-03 1.4961e-03 0.0000e+00
1.1595e-03 1.4888e-03 0.0000e+00
1.3167e-03 1.4821e-03 0.0000e+00
1.4723e-03 1.4768e-03 0.0000e+00
1.6268e-03 1.4718e-03 0.0000e+00
1.7800e-03 1.4675e-03 0.0000e+00
1.9323e-03 1.4635e-03 0.0000e+00
2.0837e-03 1.4599e-03 0.0000e+00
2.2344e-03 1.4564e-03 0.0000e+00
2.3843e-03 1.4533e-03 0.0000e+00
2.5335e-03 1.4501e-03 0.0000e+00
2.6821e-03 1.4471e-03 0.0000e+00
2.8300e-03 1.4441e-03 0.0000e+00
2.9772e-03 1.4410e-03 0.0000e+00
3.1237e-03 1.4380e-03 0.0000e+00
3.2704e-03 1.4341e-03 0.0000e+00
3.4165e-03 1.4295e-03 0.0000e+00
3.5727e-03 1.4150e-03 0.0000e+00
3.6768e-03 1.4452e-03 0.0000e+00
1.7771e-04 1.6557e-03 0.0000e+00
3.5336e-04 1.6474e-03 0.0000e+00
5.2447e-04 1.6370e-03 0.0000e+00
6.9074e-04 1.6281e-03 0.0000e+00
8.5319e-04 1.6204e-03 0.0000e+00
1.0127e-03 1.6146e-03 0.0000e+00
1.1701e-03 1.6094e-03 0.0000e+00
1.3258e-03 1.6055e-03 0.0000e+00
1.4803e-03 1.6018e-03 0.0000e+00
1.6335e-03 1.5988e-03 0.0000e+00
1.7859e-03 1.5959e-03 0.0000e+00
1.9374e-03 1.5935e-03 0.0000e+00
2.0881e-03 1.5911e-03 0.0000e+00
2.2382e-03 1.5890e-03 0.0000e+00
2.3877e-03 1.5869e-03 0.0000e+00
2.5365e-03 1.5850e-03 0.0000e+00
2.6848e-03 1.5830e-03 0.0000e+00
2.8324e-03 1.5811e-03 0.0000e+00
2.9794e-03 1.5792e-03 0.0000e+00
3.1257e-03 1.5773e-03 0.0000e+00
3.2713e-03 1.5755e-03 0.0000e+00
3.4183e-03 1.5710e-03 0.0000e+00
3.5605e-03 1.5668e-03 0.0000e+00
3.6960e-03 1.5571e-03 0.0000e+00
1.8319e-04 1.7526e-03 0.0000e+00
3.6205e-04 1.7479e-03 0.0000e+00
5.3356e-04 1.7434e-03 0.0000e+00
6.9915e-04 1.7390e-03 0.0000e+00
8.6057e-04 1.7358e-03 0.0000e+00
1.0191e-03 1.7329e-03 0.0000e+00
1.1756e-03 1.7309e-03 0.0000e+00
1.3306e-03 1.7289e-03 0.0000e+00
1.4843e-03 1.7275e-03 0.0000e+00
1.6370e-03 1.7260e-03 0.0000e+00
1.7889e-03 1.7249e-03 0.0000e+00
1.9400e-03 1.7237e-03 0.0000e+00
2.0904e-03 1.7228e-03 0.0000e+00
2.2402e-03 1.7218e-03 0.0000e+00
2.3894e-03 1.7209e-03 0.0000e+00
2.5380e-03 1.7200e-03 0.0000e+00
2.6861e-03 1.7191e-03 0.0000e+00
2.8336e-03 1.7183e-03 0.0000e+00
2.9805e-03 1.7175e-03 0.0000e+00
3.1267e-03 1.7167e-03 0.0000e+00
3.2723e-03 1.7159e-03 0.0000e+00
3.4166e-03 1.7153e-03 0.0000e+00
3.5607e-03 1.7146e-03 0.0000e+00
3.6900e-03 1.7141e-03 0.0000e+00
1.8380e-04 1.8458e-03 0.0000e+00
3.6303e-04 1.8475e-03 0.0000e+00
5.3460e-04 1.8487e-03 0.0000e+00
7.0013e-04 1.8502e-03 0.0000e+00
8.6140e-04 1.8508e-03 0.0000e+00
1.0199e-03 1.8517e-03 0.0000e+00
1.1762e-03 1.8521e-03 0.0000e+00
1.3311e-03 1.8528e-03 0.0000e+00
1.4847e-03 1.8530e-03 0.0000e+00
1.6373e-03 1.8536e-03 0.0000e+00
1.7891e-03 1.8538e-03 0.0000e+00
1.9401e-03 1.8542e-03 0.0000e+00
2.0905e-03 1.8544e-03 0.0000e+00
2.2403e-03 1.8547e-03 0.0000e+00
2.3894e-03 1.8548e-03 0.0000e+00
2.5381e-03 1.8551e-03 0.0000e+00
2.6861e-03 1.8553e-03 0.0000e+00
2.8336e-03 1.8555e-03 0.0000e+00
2.9804e-03 1.8558e-03 0.0000e+00
3.1267e-03 1.8560e-03 0.0000e+00
3.2723e-03 1.8564e-03 0.0000e+00
3.4192e-03 1.8594e-03 0.0000e+00
3.5610e-03 1.8625e-03 0.0000e+00
3.7007e-03 1.8721e-03 0.0000e+00
1.7979e-04 1.9414e-03 0.0000e+00
3.5655e-04 1.9474e-03 0.0000e+00
5.2781e-04 1.9550e-03 0.0000e+00
6.9375e-04 1.9610e-03 0.0000e+00
8.5581e-04 1.9663e-03 0.0000e+00
1.0149e-03 1.9701e-03 0.0000e+00
1.1719e-03 1.9737e-03 0.0000e+00
1.3272e-03 1.9763e-03 0.0000e+00
1.4814e-03 1.9788e-03 0.0000e+00
1.6344e-03 1.9808e-03 0.0000e+00
1.7866e-03 1.9829e-03 0.0000e+00
1.9378e-03 1.9845e-03 0.0000e+00
2.0885e-03 1.9861e-03 0.0000e+00
2.2385e-03 1.9874e-03 0.0000e+00
2.3878e-03 1.9888e-03 0.0000e+00
2.5366e-03 1.9901e-03 0.0000e+00
2.6848e-03 1.9914e-03 0.0000e+00
2.8323e-03 1.9927e-03 0.0000e+00
2.9793e-03 1.9940e-03 0.0000e+00
3.1256e-03 1.9954e-03 0.0000e+00
3.2722e-03 1.9977e-03 0.0000e+00
3.4167e-03 2.0009e-03 0.0000e+00
3.5721e-03 2.0156e-03 0.0000e+00
3.6757e-03 1.9860e-03 0.0000e+00
1.7154e-04 2.0431e-03 0.0000e+00
3.4310e-04 2.0516e-03 0.0000e+00
5.1305e-04 2.0621e-03 0.0000e+00
6.8013e-04 2.0728e-03 0.0000e+00
8.4363e-04 2.0813e-03 0.0000e+00
1.0043e-03 2.0889e-03 0.0000e+00
1.1625e-03 2.0947e-03 0.0000e+00
1.3191e-03 2.0999e-03 0.0000e+00
1.4742e-03 2.1041e-03 0.0000e+00
1.6282e-03 2.1081e-03 0.0000e+00
1.7811e-03 2.1114e-03 0.0000e+00
1.9332e-03 2.1147e-03 0.0000e+00
2.0843e-03 2.1175e-03 0.0000e+00
2.2348e-03 2.1202e-03 0.0000e+00
2.3845e-03 2.1226e-03 0.0000e+00
2.5337e-03 2.1251e-03 0.0000e+00
2.6821e-03 2.1274e-03 0.0000e+00
2.8299e-03 2.1298e-03 0.0000e+00
2.9771e-03 2.1322e-03 0.0000e+00
3.1236e-03 2.1347e-03 0.0000e+00
3.2682e-03 2.1372e-03 0.0000e+00
3.4179e-03 2.1424e-03 0.0000e+00
3.5491e-03 2.1440e-03 0.0000e+00
3.6944e-03 2.1402e-03 0.0000e+00
1.6149e-04 2.1572e-03 0.0000e+00
3.2495e-04 2.1629e-03 0.0000e+00
4.9146e-04 2.1734e-03 0.0000e+00
6.5889e-04 2.1850e-03 0.0000e+00
8.2485e-04 2.1970e-03 0.0000e+00
9.8760e-04 2.2070e-03 0.0000e+00
1.1480e-03 2.2158e-03 0.0000e+00
1.3063e-03 2.2227e-03 0.0000e+00
1.4631e-03 2.2293e-03 0.0000e+00
1.6184e-03 2.2347e-03 0.0000e+00
1.7727e-03 2.2399e-03 0.0000e+00
1.9257e-03 2.2443e-03 0.0000e+00
2.0780e-03 2.2486e-03 0.0000e+00
2.2292e-03 2.2525e-03 0.0000e+00
2.3797e-03 2.2563e-03 0.0000e+00
2.5292e-03 2.2598e-03 0.0000e+00
2.6782e-03 2.2633e-03 0.0000e+00
2.8263e-03 2.2668e-03 0.0000e+00
2.9738e-03 2.2703e-03 0.0000e+00
3.1204e-03 2.2740e-03 0.0000e+00
3.2716e-03 2.2803e-03 0.0000e+00
3.4209e-03 2.2825e-03 0.0000e+00
3.6006e-03 2.2843e-03 0.0000e+00
1.5386e-04 2.2846e-03 0.0000e+00
3.0877e-04 2.2872e-03 0.0000e+00
4.6754e-04 2.2923e-03 0.0000e+00
6.3176e-04 2.3011e-03 0.0000e+00
7.9834e-04 2.3129e-03 0.0000e+00
9.6421e-04 2.3255e-03 0.0000e+00
1.1277e-03 2.3359e-03 0.0000e+00
1.2887e-03 2.3457e-03 0.0000e+00
1.4474e-03 2.3535e-03 0.0000e+00
1.6049e-03 2.3609e-03 0.0000e+00
1.7607e-03 2.3673e-03 0.0000e+00
1.9156e-03 2.3736e-03 0.0000e+00
2.0690e-03 2.3790e-03 0.0000e+00
2.2215e-03 2.3844e-03 0.0000e+00
2.3728e-03 2.3894e-03 0.0000e+00
2.5234e-03 2.3942e-03 0.0000e+00
2.6728e-03 2.3989e-03 0.0000e+00
2.8215e-03 2.4036e-03 0.0000e+00
2.9693e-03 2.4083e-03 0.0000e+00
3.1199e-03 2.4167e-03 0.0000e+00
3.2662e-03 2.4216e-03 0.0000e+00
3.4250e-03 2.4355e-03 0.0000e+00
3.5475e-03 2.4082e-03 0.0000e+00
1.5069e-04 2.4221e-03 0.0000e+00
3.0140e-04 2.4226e-03 0.0000e+00
4.5314e-04 2.4240e-03 0.0000e+00
6.0703e-04 2.4270e-03 0.0000e+00
7.6631e-04 2.4341e-03 0.0000e+00
9.3244e-04 2.4433e-03 0.0000e+00
1.1001e-03 2.4559e-03 0.0000e+00
1.2645e-03 2.4672e-03 0.0000e+00
1.4268e-03 2.4774e-03 0.0000e+00
1.5865e-03 2.4860e-03 0.0000e+00
1.7449e-03 2.4943e-03 0.0000e+00
1.9016e-03 2.5015e-03 0.0000e+00
2.0573e-03 2.5089e-03 0.0000e+00
2.2113e-03 2.5154e-03 0.0000e+00
2.3642e-03 2.5220e-03 0.0000e+00
2.5157e-03 2.5281e-03 0.0000e+00
2.6662e-03 2.5341e-03 0.0000e+00
2.8155e-03 2.5401e-03 0.0000e+00
2.9674e-03 2.5496e-03 0.0000e+00
3.1147e-03 2.5557e-03 0.0000e+00
3.2712e-03 2.5723e-03 0.0000e+00
3.3870e-03 2.5472e-03 0.0000e+00
3.5443e-03 2.5676e-03 0.0000e+00
1.4938e-04 2.5634e-03 0.0000e+00
2.9881e-04 2.5636e-03 0.0000e+00
4.4833e-04 2.5640e-03 0.0000e+00
5.9814e-04 2.5651e-03 0.0000e+00
7.4916e-04 2.5665e-03 0.0000e+00
9.0323e-04 2.5698e-03 0.0000e+00
1.0637e-03 2.5773e-03 0.0000e+00
1.2314e-03 2.5877e-03 0.0000e+00
1.3984e-03 2.5995e-03 0.0000e+00
1.5622e-03 2.6106e-03 0.0000e+00
1.7235e-03 2.6196e-03 0.0000e+00
1.8833e-03 2.6288e-03 0.0000e+00
2.0412e-03 2.6370e-03 0.0000e+00
2.1981e-03 2.6455e-03 0.0000e+00
2.3528e-03 2.6533e-03 0.0000e+00
2.5063e-03 2.6612e-03 0.0000e+00
2.6579e-03 2.6687e-03 0.0000e+00
2.8110e-03 2.6788e-03 0.0000e+00
2.9607e-03 2.6880e-03 0.0000e+00
3.1187e-03 2.7050e-03 0.0000e+00
3.2356e-03 2.6815e-03 0.0000e+00
3.3970e-03 2.7035e-03 0.0000e+00
3.5386e-03 2.7096e-03 0.0000e+00
1.4856e-04 2.7067e-03 0.0000e+00
2.9714e-04 2.7068e-03 0.0000e+00
4.4579e-04 2.7072e-03 0.0000e+00
5.9473e-04 2.7076e-03 0.0000e+00
7.4390e-04 2.7079e-03 0.0000e+00
8.9326e-04 2.7085e-03 0.0000e+00
1.0439e-03 2.7099e-03 0.0000e+00
1.1983e-03 2.7138e-03 0.0000e+00
1.3606e-03 2.7221e-03 0.0000e+00
1.5285e-03 2.7323e-03 0.0000e+00
1.6948e-03 2.7444e-03 0.0000e+00
1.8579e-03 2.7539e-03 0.0000e+00
2.0198e-03 2.7640e-03 0.0000e+00
2.1795e-03 2.7733e-03 0.0000e+00
2.3380e-03 2.7833e-03 0.0000e+00
2.4939e-03 2.7927e-03 0.0000e+00
2.6489e-03 2.8032e-03 0.0000e+00
2.8002e-03 2.8142e-03 0.0000e+00
2.9625e-03 2.8361e-03 0.0000e+00
3.0817e-03 2.8136e-03 0.0000e+00
3.2430e-03 2.8363e-03 0.0000e+00
3.3967e-03 2.8495e-03 0.0000e+00
1.4810e-04 2.8513e-03 0.0000e+00
2.9615e-04 2.8514e-03 0.0000e+00
4.4430e-04 2.8515e-03 0.0000e+00
5.9258e-04 2.8517e-03 0.0000e+00
7.4096e-04 2.8518e-03 0.0000e+00
8.8953e-04 2.8521e-03 0.0000e+00
1.0382e-03 2.8522e-03 0.0000e+00
1.1872e-03 2.8528e-03 0.0000e+00
1.3376e-03 2.8540e-03 0.0000e+00
1.4929e-03 2.8591e-03 0.0000e+00
1.6565e-03 2.8672e-03 0.0000e+00
1.8241e-03 2.8781e-03 0.0000e+00
1.9891e-03 2.8886e-03 0.0000e+00
2.1535e-03 2.8993e-03 0.0000e+00
2.3161e-03 2.9099e-03 0.0000e+00
2.4770e-03 2.9220e-03 0.0000e+00
2.6333e-03 2.9336e-03 0.0000e+00
2.7885e-03 2.9457e-03 0.0000e+00
2.9231e-03 2.9564e-03 0.0000e+00
3.0862e-03 2.9679e-03 0.0000e+00
3.2340e-03 2.9774e-03 0.0000e+00
3.3623e-03 3.0232e-03 0.0000e+00
1.4782e-04 2.9966e-03 0.0000e+00
2.9563e-04 2.9967e-03 0.0000e+00
4.4347e-04 2.9967e-03 0.0000e+00
5.9133e-04 2.9968e-03 0.0000e+00
7.3922e-04 2.9968e-03 0.0000e+00
8.8717e-04 2.9969e-03 0.0000e+00
1.0352e-03 2.9970e-03 0.0000e+00
1.1834e-03 2.9970e-03 0.0000e+00
1.3316e-03 2.9971e-03 0.0000e+00
1.4802e-03 2.9975e-03 0.0000e+00
1.6308e-03 2.9992e-03 0.0000e+00
1.7871e-03 3.0048e-03 0.0000e+00
1.9511e-03 3.0134e-03 0.0000e+00
2.1171e-03 3.0230e-03 0.0000e+00
2.2838e-03 3.0342e-03 0.0000e+00
2.4501e-03 3.0461e-03 0.0000e+00
2.6161e-03 3.0608e-03 0.0000e+00
2.7756e-03 3.0743e-03 0.0000e+00
2.9468e-03 3.0811e-03 0.0000e+00
3.0649e-03 3.1229e-03 0.0000e+00
3.2425e-03 3.1226e-03 0.0000e+00
1.4762e-04 3.1429e-03 0.0000e+00
2.9526e-04 3.1429e-03 0.0000e+00
4.4290e-04 3.1429e-03 0.0000e+00
5.9054e-04 3.1430e-03 0.0000e+00
7.3819e-04 3.1430e-03 0.0000e+00
8.8583e-04 3.1430e-03 0.0000e+00
1.0335e-03 3.1430e-03 0.0000e+00
1.1812e-03 3.1430e-03 0.0000e+00
1.3289e-03 3.1430e-03 0.0000e+00
1.4767e-03 3.1430e-03 0.0000e+00
1.6244e-03 3.1430e-03 0.0000e+00
1.7728e-03 3.1435e-03 0.0000e+00
1.9237e-03 3.1459e-03 0.0000e+00
2.0807e-03 3.1518e-03 0.0000e+00
2.2435e-03 3.1587e-03 0.0000e+00
2.4103e-03 3.1693e-03 0.0000e+00
2.5806e-03 3.1822e-03 0.0000e+00
2.7555e-03 3.2010e-03 0.0000e+00
2.9199e-03 3.2222e-03 0.0000e+00
3.0944e-03 3.2494e-03 0.0000e+00
3.1971e-03 3.2612e-03 0.0000e+00
1.4743e-04 3.2916e-03 0.0000e+00
2.9487e-04 3.2926e-03 0.0000e+00
4.4232e-04 3.2926e-03 0.0000e+00
5.8978e-04 3.2927e-03 0.0000e+00
7.3723e-04 3.2927e-03 0.0000e+00
8.8471e-04 3.2927e-03 0.0000e+00
1.0322e-03 3.2927e-03 0.0000e+00
1.1796e-03 3.2927e-03 0.0000e+00
1.3271e-03 3.2927e-03 0.0000e+00
1.4745e-03 3.2926e-03 0.0000e+00
1.6220e-03 3.2926e-03 0.0000e+00
1.7694e-03 3.2926e-03 0.0000e+00
1.9168e-03 3.2926e-03 0.0000e+00
2.0651e-03 3.2933e-03 0.0000e+00
2.2161e-03 3.2959e-03 0.0000e+00
2.3719e-03 3.3002e-03 0.0000e+00
2.5342e-03 3.3077e-03 0.0000e+00
2.7052e-03 3.3201e-03 0.0000e+00
2.8883e-03 3.3441e-03 0.0000e+00
3.0411e-03 3.3722e-03 0.0000e+00
3.1962e-03 3.3964e-03 0.0000e+00
1.4724e-04 3.4468e-03 0.0000e+00
2.9449e-04 3.4494e-03 0.0000e+00
4.4175e-04 3.4499e-03 0.0000e+00
5.8900e-04 3.4499e-03 0.0000e+00
7.3627e-04 3.4499e-03 0.0000e+00
8.8353e-04 3.4500e-03 0.0000e+00
1.0308e-03 3.4499e-03 0.0000e+00
1.1781e-03 3.4500e-03 0.0000e+00
1.3253e-03 3.4499e-03 0.0000e+00
1.4726e-03 3.4499e-03 0.0000e+00
1.6198e-03 3.4499e-03 0.0000e+00
1.7671e-03 3.4500e-03 0.0000e+00
1.9143e-03 3.4499e-03 0.0000e+00
2.0615e-03 3.4499e-03 0.0000e+00
2.2087e-03 3.4500e-03 0.0000e+00
2.3564e-03 3.4508e-03 0.0000e+00
2.5065e-03 3.4521e-03 0.0000e+00
2.6611e-03 3.4549e-03 0.0000e+00
2.8327e-03 3.4617e-03 0.0000e+00
3.0481e-03 3.4842e-03 0.0000e+00
0.0000e+00 -7.8698e-07 0.0000e+00
1.4687e-04 -7.7941e-07 0.0000e+00
2.9413e-04 -7.6748e-07 0.0000e+00
4.4110e-04 -8.1296e-07 0.0000e+00
5.8823e-04 -8.4343e-07 0.0000e+00
7.3528e-04 -8.2016e-07 0.0000e+00
8.8235e-04 -8.4318e-07 0.0000e+00
1.0294e-03 -8.4050e-07 0.0000e+00
1.1765e-03 -8.5861e-07 0.0000e+00
1.3235e-03 -8.6647e-07 0.0000e+00
1.4706e-03 -8.7367e-07 0.0000e+00
1.6176e-03 -9.0720e-07 0.0000e+00
1.7647e-03 -9.1574e-07 0.0000e+00
1.9118e-03 -8.9453e-07 0.0000e+00
2.0588e-03 -9.6590e-07 0.0000e+00
2.2059e-03 -9.8456e-07 0.0000e+00
2.3531e-03 -1.1057e-06 0.0000e+00
2.5000e-03 -1.3084e-06 0.0000e+00
2.6471e-03 -1.2408e-06 0.0000e+00
2.7940e-03 -1.1108e-06 0.0000e+00
2.9608e-03 -4.2275e-06 0.0000e+00
3.1782e-03 2.8527e-05 0.0000e+00
3.2583e-03 1.6281e-04 0.0000e+00